LAMMPS data file via write_data, version Version LIGGGHTS-PUBLIC 3.8.0, compiled 2020-01-04-18:21:01 by root, git commit ce1931e377a2945e3fa25dae0eebc1f697009a32, timestep = 1600000

8574 atoms
3 atom types

2.6000000000000001e-01 6.9999999999999996e-01 xlo xhi
0.0000000000000000e+00 2.5999999999999999e-02 ylo yhi
0.0000000000000000e+00 2.1740000000000001e-01 zlo zhi

Atoms

1 1 4.0000000000000001e-03 2.6500000000000000e+03 2.6559711198193081e-01 1.2442360556579267e-02 6.8121950665831904e-03 0 0 0
2 1 3.0000000000000001e-03 2.6500000000000000e+03 2.6722598474211301e-01 5.0744298729364793e-03 1.4963759324066481e-03 0 0 0
3 1 4.0000000000000001e-03 2.6500000000000000e+03 2.7046992785362228e-01 1.8493117105176757e-03 1.9856130474399905e-03 0 0 0
4 1 3.0000000000000001e-03 2.6500000000000000e+03 2.6440604807015156e-01 4.0064380683751816e-03 1.4485343484218084e-03 0 0 0
5 1 7.0000000000000001e-03 2.6500000000000000e+03 2.6348246554062110e-01 5.5362528568374996e-03 6.0466009623395102e-03 0 0 0
6 1 4.0000000000000001e-03 2.6500000000000000e+03 2.6585843830764883e-01 1.2468521818710927e-02 2.0748283028237582e-03 0 0 0
7 1 3.0000000000000001e-03 2.6500000000000000e+03 2.7011188401935227e-01 1.0858710260947840e-02 4.3663634094474740e-03 0 0 0
8 1 6.0000000000000001e-03 2.6500000000000000e+03 2.6998879824188099e-01 4.4920492436485472e-03 9.4222087891822678e-03 0 0 0
9 1 3.0000000000000001e-03 2.6500000000000000e+03 2.6145965461683307e-01 9.7268028011599263e-03 3.5977367872573975e-03 0 0 0
10 1 3.0000000000000001e-03 2.6500000000000000e+03 2.6354200923185550e-01 9.7170945058498107e-03 1.4763457913347759e-03 0 0 0
11 1 3.0000000000000001e-03 2.6500000000000000e+03 2.6654234496685952e-01 9.1454805704240198e-03 1.4608462839805797e-03 0 0 0
12 1 3.0000000000000001e-03 2.6500000000000000e+03 2.6721519248832348e-01 1.0244147398358029e-02 4.3790360590247740e-03 0 0 0
13 1 5.0000000000000001e-03 2.6500000000000005e+03 2.6243513684761038e-01 1.0469288441868943e-02 9.2697577763169309e-03 0 0 0
14 1 3.0000000000000001e-03 2.6500000000000000e+03 2.6424764610920359e-01 1.0202849902589567e-02 4.4991037236436354e-03 0 0 0
15 1 3.0000000000000001e-03 2.6500000000000000e+03 2.6572743361187973e-01 3.5991396472651888e-03 1.0025339212030025e-02 0 0 0
16 1 3.0000000000000001e-03 2.6500000000000000e+03 2.6149126840909864e-01 1.1877694929582237e-02 1.4874331084164831e-03 0 0 0
17 1 3.0000000000000001e-03 2.6500000000000000e+03 2.6755014949813172e-01 3.3206199884556159e-03 4.1691270195816062e-03 0 0 0
18 1 3.0000000000000001e-03 2.6500000000000000e+03 2.6155662055508461e-01 7.3617251060484551e-03 1.4963759324066470e-03 0 1 0
19 1 3.0000000000000001e-03 2.6500000000000000e+03 2.6147808904634151e-01 6.3879964833582093e-03 1.0513730161243403e-02 0 0 0
20 1 3.0000000000000001e-03 2.6500000000000000e+03 2.6811284640354216e-01 7.3709863082226882e-03 3.2935266732313276e-03 0 0 0
21 1 4.0000000000000001e-03 2.6500000000000000e+03 2.6673048870768135e-01 1.0870672355031733e-02 1.0270127089087895e-02 0 0 0
22 1 3.0000000000000001e-03 2.6500000000000000e+03 2.6146556456182252e-01 4.3156134983100966e-03 1.6687696669286593e-03 0 1 0
23 1 3.0000000000000001e-03 2.6500000000000000e+03 2.6741206360428915e-01 1.4242789125374425e-03 1.1456419809213471e-02 0 0 0
24 1 3.0000000000000001e-03 2.6500000000000000e+03 2.6944140571159292e-01 9.5840549771924015e-03 1.7706328452412976e-03 0 1 0
25 1 4.0000000000000001e-03 2.6500000000000000e+03 2.6591286788647162e-01 7.0432748843336545e-03 1.0666684364424981e-02 0 0 0
26 1 3.0000000000000001e-03 2.6500000000000000e+03 2.6460280369231010e-01 6.9453273411048452e-03 1.4474473619309326e-03 0 1 0
27 1 3.0000000000000001e-03 2.6500000000000000e+03 2.6992479606906106e-01 4.9887784877033700e-03 3.4206228885341112e-03 0 0 0
28 1 3.0000000000000001e-03 2.6500000000000000e+03 2.6422692052863211e-01 1.0678778360215361e-03 1.4450199063984358e-03 0 1 0
29 1 3.0000000000000001e-03 2.6500000000000000e+03 2.6936783576773354e-01 8.7317482132057127e-03 1.0595856364003656e-02 0 0 0
30 1 4.0000000000000001e-03 2.6500000000000000e+03 2.6684443054995843e-01 9.3599290585268471e-04 8.0085339420991695e-03 0 0 0
31 1 3.0000000000000001e-03 2.6500000000000000e+03 2.6703166832443254e-01 2.0739606367377920e-03 1.4957215163532885e-03 0 0 0
32 1 3.0000000000000001e-03 2.6500000000000000e+03 2.7088991744147539e-01 4.2006085703059248e-04 7.2997313134775185e-03 0 0 0
33 1 3.0000000000000001e-03 2.6500000000000000e+03 2.6182851776028215e-01 1.7197648988678317e-03 3.1196106879610723e-03 0 1 0
34 1 4.0000000000000001e-03 2.6500000000000000e+03 2.6192898861211950e-01 1.2640596048847026e-02 5.4087354196045495e-03 0 0 0
35 1 3.0000000000000001e-03 2.6500000000000000e+03 2.7103358208569894e-01 6.9973509827053176e-03 1.4947694952859871e-03 0 0 0
36 1 4.0000000000000001e-03 2.6500000000000000e+03 2.6481946504099702e-01 1.4793756449656847e-04 4.7059779235123830e-03 0 0 0
37 1 5.0000000000000001e-03 2.6500000000000005e+03 2.6243872495903864e-01 2.3621964902610421e-04 8.4916740524728692e-03 0 0 0
38 1 4.0000000000000001e-03 2.6500000000000000e+03 2.7238848222587320e-01 2.9595390717761030e-03 5.4193716216724462e-03 0 0 0
39 1 3.0000000000000001e-03 2.6500000000000000e+03 2.7238190907141235e-01 9.6728870170399855e-03 1.4467654326954251e-03 0 0 0
40 1 3.0000000000000001e-03 2.6500000000000000e+03 2.7376649648246804e-01 1.2300107791741495e-02 1.4920552345338996e-03 0 0 0
41 1 4.0000000000000001e-03 2.6500000000000000e+03 2.7356387583230368e-01 4.3406839583871870e-03 1.9318587859212548e-03 0 0 0
42 1 3.0000000000000001e-03 2.6500000000000000e+03 2.7534243490024657e-01 9.7880543594556692e-03 1.4434764283689481e-03 0 0 0
43 1 3.0000000000000001e-03 2.6500000000000000e+03 2.7627295389394185e-01 1.2067635258907663e-02 3.9730269528574415e-03 0 0 0
44 1 7.0000000000000001e-03 2.6500000000000000e+03 2.7394726828013760e-01 8.1176436100925571e-03 5.8735356956341796e-03 0 0 0
45 1 3.0000000000000001e-03 2.6500000000000000e+03 2.7809769699904452e-01 1.0913189795278368e-02 1.4868547183526093e-03 0 0 0
46 1 3.0000000000000001e-03 2.6500000000000000e+03 2.8102375844520672e-01 1.1469300053378128e-02 1.4601130493871255e-03 0 0 0
47 1 5.0000000000000001e-03 2.6500000000000005e+03 2.8148220161278437e-01 3.4690442454962298e-03 8.0032834860984583e-03 0 0 0
48 1 4.0000000000000001e-03 2.6500000000000000e+03 2.7895546684830336e-01 1.0009843080422390e-02 4.7401197494249953e-03 0 0 0
49 1 3.0000000000000001e-03 2.6500000000000000e+03 2.7916348625297083e-01 3.6389495233647632e-03 4.8038884374754552e-03 0 0 0
50 1 3.0000000000000001e-03 2.6500000000000000e+03 2.8204461604723530e-01 1.1749151714912842e-02 4.2151198121942396e-03 0 0 0
51 1 3.0000000000000001e-03 2.6500000000000000e+03 2.7640356585717685e-01 4.2463400118621852e-03 3.9154879218132209e-03 0 0 0
52 1 3.0000000000000001e-03 2.6500000000000000e+03 2.7595984925387651e-01 6.8608955361095540e-03 1.4870416849833519e-03 0 1 0
53 1 3.0000000000000001e-03 2.6500000000000000e+03 2.7833729779455635e-01 6.5580185703036425e-03 4.0610193736967280e-03 0 0 0
54 1 6.0000000000000001e-03 2.6500000000000000e+03 2.7619048675006314e-01 1.9794780150032250e-03 8.4308491743149833e-03 0 0 0
55 1 5.0000000000000001e-03 2.6500000000000005e+03 2.8193903510280871e-01 1.0541257376798521e-02 8.0226967245315157e-03 0 0 0
56 1 3.0000000000000001e-03 2.6500000000000000e+03 2.7641577602928846e-01 7.0640114874684036e-03 1.0034435159832296e-02 0 0 0
57 1 4.0000000000000001e-03 2.6500000000000000e+03 2.8074712406547248e-01 2.5407646984939632e-03 1.9266195886088427e-03 0 1 0
58 1 4.0000000000000001e-03 2.6500000000000000e+03 2.7902263776766162e-01 7.1739666447670197e-03 7.6345032506613250e-03 0 0 0
59 1 3.0000000000000001e-03 2.6500000000000000e+03 2.7886773685532107e-01 8.0137669835248070e-03 1.4953128170511485e-03 0 1 0
60 1 3.0000000000000001e-03 2.6500000000000000e+03 2.7831386050255147e-01 5.0104157309559692e-03 1.4948653996590352e-03 0 1 0
61 1 3.0000000000000001e-03 2.6500000000000000e+03 2.7655284113427903e-01 2.4784749590828063e-03 1.4963737425412430e-03 0 1 0
62 1 3.0000000000000001e-03 2.6500000000000000e+03 2.7829572514407597e-01 4.9951091554750679e-03 1.0974286396933076e-02 0 0 0
63 1 5.0000000000000001e-03 2.6500000000000005e+03 2.8168775345127517e-01 6.9909737976230017e-03 1.1499686993266292e-02 0 0 0
64 1 3.0000000000000001e-03 2.6500000000000000e+03 2.8037539609311068e-01 1.0786245038625825e-02 1.1680136319519765e-02 0 0 0
65 1 3.0000000000000001e-03 2.6500000000000000e+03 2.7613799483566093e-01 8.8025924902769795e-05 3.3857282761455641e-03 0 1 0
66 1 3.0000000000000001e-03 2.6500000000000000e+03 2.7773829802626138e-01 9.4566154978271422e-03 1.1222328714467234e-02 0 0 0
68 1 3.0000000000000001e-03 2.6500000000000000e+03 2.7395834798374791e-01 8.9462110924908283e-04 1.4950802962243933e-03 0 0 0
466 1 4.0000000000000001e-03 2.6500000000000000e+03 2.8171658981691089e-01 2.3270269752766147e-05 1.1565189678571841e-02 0 1 0
69 1 7.0000000000000001e-03 2.6500000000000000e+03 2.8337187050930007e-01 7.0582769745243766e-03 3.4526967608589096e-03 0 0 0
70 1 3.0000000000000001e-03 2.6500000000000000e+03 2.8399974683090634e-01 1.1590079395383231e-02 1.5527968026826709e-03 0 0 0
71 1 3.0000000000000001e-03 2.6500000000000000e+03 2.8441769029904701e-01 1.9396197689890524e-03 1.0172186155364190e-02 0 0 0
72 1 4.0000000000000001e-03 2.6500000000000000e+03 2.8431697552079721e-01 1.8974464224349973e-03 4.8250483181796902e-03 0 1 0
73 1 3.0000000000000001e-03 2.6500000000000000e+03 2.8627597961311402e-01 3.5193510661496821e-03 1.4955297389248525e-03 0 0 0
74 1 3.0000000000000001e-03 2.6500000000000000e+03 2.8615661230510314e-01 1.7326785745377829e-03 7.7661508356052624e-03 0 1 0
75 1 5.0000000000000001e-03 2.6500000000000005e+03 2.8588757359378908e-01 1.2183266944888468e-02 5.1656180800946543e-03 0 0 0
76 1 3.0000000000000001e-03 2.6500000000000000e+03 2.8769952184953745e-01 8.4882653051869001e-03 1.4744306861820531e-03 0 0 0
77 1 3.0000000000000001e-03 2.6500000000000000e+03 2.8843550219597014e-01 5.5843609207220342e-03 1.4929916271098805e-03 0 0 0
78 1 3.0000000000000001e-03 2.6500000000000000e+03 2.9056957711850634e-01 7.6796857648953470e-03 1.4958348080112477e-03 0 0 0
79 1 3.0000000000000001e-03 2.6500000000000000e+03 2.9051803708141610e-01 1.0665072817225608e-02 1.4807332413060989e-03 0 0 0
80 1 3.0000000000000001e-03 2.6500000000000000e+03 2.9193661196962623e-01 3.2767366656128605e-03 4.0973520927491550e-03 0 0 0
81 1 7.0000000000000001e-03 2.6500000000000000e+03 2.9293552738503215e-01 7.6721066201655306e-03 6.2241141978378470e-03 0 0 0
83 1 3.0000000000000001e-03 2.6500000000000000e+03 2.8950505173687879e-01 1.0746193482043071e-02 4.2902776412842231e-03 0 0 0
84 1 3.0000000000000001e-03 2.6500000000000000e+03 2.8835130412585458e-01 7.9782797492299294e-03 4.3220787015915097e-03 0 0 0
85 1 3.0000000000000001e-03 2.6500000000000000e+03 2.9322095989112706e-01 3.7306031251735814e-03 1.4721089577324068e-03 0 1 0
86 1 5.0000000000000001e-03 2.6500000000000005e+03 2.8822326255387543e-01 4.1047187248050548e-03 5.2392452575289678e-03 0 0 0
87 1 3.0000000000000001e-03 2.6500000000000000e+03 2.8846195815215925e-01 9.7188196264139902e-03 6.9096067115828018e-03 0 0 0
88 1 3.0000000000000001e-03 2.6500000000000000e+03 2.9101865363024720e-01 1.2758937679004297e-02 9.4584189381906065e-03 0 0 0
89 1 3.0000000000000001e-03 2.6500000000000000e+03 2.9152423554806745e-01 3.1931674654382810e-03 7.8473572990374225e-03 0 0 0
90 1 3.0000000000000001e-03 2.6500000000000000e+03 2.8561904713115627e-01 9.1085127119642766e-03 7.6182901596163616e-03 0 0 0
91 1 6.0000000000000001e-03 2.6500000000000000e+03 2.9371695303840994e-01 4.1343656610163997e-03 1.1628863216878130e-02 0 0 0
92 1 3.0000000000000001e-03 2.6500000000000000e+03 2.9040221867194105e-01 9.8736882367412640e-03 9.8723828256264360e-03 0 0 0
93 1 3.0000000000000001e-03 2.6500000000000000e+03 2.8998125828013288e-01 1.6527781082602373e-03 1.1537475415472965e-02 0 0 0
94 1 7.0000000000000001e-03 2.6500000000000000e+03 2.8754160122866829e-01 5.9209078993344190e-03 1.0871781696496089e-02 0 0 0
95 1 3.0000000000000001e-03 2.6500000000000000e+03 2.8903724747966580e-01 1.7400278673210198e-03 8.5179115249612736e-03 0 1 0
96 1 3.0000000000000001e-03 2.6500000000000000e+03 2.8706848592842965e-01 6.2557520588814070e-04 1.0433618344394243e-02 0 1 0
97 1 3.0000000000000001e-03 2.6500000000000000e+03 2.8777767243337560e-01 1.1114297457750477e-02 1.0406906070456740e-02 0 0 0
98 1 3.0000000000000001e-03 2.6500000000000000e+03 2.9025677610122580e-01 3.2003323702072964e-03 1.4963759324066481e-03 0 0 0
99 1 4.0000000000000001e-03 2.6500000000000000e+03 2.9237625348080515e-01 3.8787591748708146e-04 2.0082516974725701e-03 0 1 0
100 1 3.0000000000000001e-03 2.6500000000000000e+03 2.8701951634069922e-01 1.1383980815912360e-02 1.4583425704483238e-03 0 0 0
101 1 4.0000000000000001e-03 2.6500000000000000e+03 2.9078322591485406e-01 4.7737707681462467e-04 5.7868970861883213e-03 0 1 0
102 1 3.0000000000000001e-03 2.6500000000000000e+03 2.8400177959413841e-01 1.3288508992571669e-03 1.4458876233413174e-03 0 1 0
103 1 3.0000000000000001e-03 2.6500000000000000e+03 2.9337845599494589e-01 6.6906211921324609e-03 1.4251950520523351e-03 0 0 0
488 1 5.0000000000000001e-03 2.6500000000000005e+03 2.8791998999400437e-01 2.3792414138133392e-05 2.4365956844812939e-03 0 1 0
104 1 4.0000000000000001e-03 2.6500000000000000e+03 2.9394858455975970e-01 1.0961614354345077e-02 1.9774801160528134e-03 0 0 0
105 1 6.0000000000000001e-03 2.6500000000000000e+03 2.9550743605556234e-01 1.7835529845340065e-03 6.3571676484271882e-03 0 1 0
106 1 3.0000000000000001e-03 2.6500000000000000e+03 2.9551254680759170e-01 1.8432848519818509e-03 1.4816168076569188e-03 0 1 0
108 1 3.0000000000000001e-03 2.6500000000000000e+03 2.9527205757809971e-01 1.1932886989517289e-02 7.2638571862098074e-03 0 0 0
109 1 4.0000000000000001e-03 2.6500000000000000e+03 2.9645906325456867e-01 5.0676861314013786e-03 2.7646383727550562e-03 0 0 0
110 1 3.0000000000000001e-03 2.6500000000000000e+03 2.9693312481754203e-01 7.3532763397157344e-03 9.2023591662191880e-03 0 0 0
111 1 3.0000000000000001e-03 2.6500000000000000e+03 2.9604281126855270e-01 8.2439171051705232e-03 1.4697146289562046e-03 0 0 0
112 1 3.0000000000000001e-03 2.6500000000000000e+03 2.9637901457952215e-01 6.6832677863344007e-04 1.0619449049266060e-02 0 0 0
113 1 3.0000000000000001e-03 2.6500000000000000e+03 2.9756939822646528e-01 5.6602907138691774e-03 6.8451388195510006e-03 0 0 0
114 1 3.0000000000000001e-03 2.6500000000000000e+03 2.9744987522135385e-01 1.0869644651710942e-02 1.4909013567717415e-03 0 0 0
115 1 3.0000000000000001e-03 2.6500000000000000e+03 2.9901570605373512e-01 8.1260539092106263e-03 1.4753025551037975e-03 0 0 0
116 1 3.0000000000000001e-03 2.6500000000000000e+03 2.9969978789049562e-01 5.2130953597897432e-03 1.4844517051400114e-03 0 0 0
117 1 3.0000000000000001e-03 2.6500000000000000e+03 3.0268285282616908e-01 5.4185723862925916e-03 1.4886193163324883e-03 0 0 0
118 1 3.0000000000000001e-03 2.6500000000000000e+03 3.0169366461144881e-01 9.4513854562696346e-03 1.4824620467334116e-03 0 0 0
119 1 7.0000000000000001e-03 2.6500000000000000e+03 2.9971916797843756e-01 1.0016514977319381e-02 6.0175917749982922e-03 0 0 0
120 1 3.0000000000000001e-03 2.6500000000000000e+03 3.0312619673460522e-01 2.4522804795055696e-03 1.4949588585745103e-03 0 0 0
121 1 3.0000000000000001e-03 2.6500000000000000e+03 3.0019394514278469e-01 1.2025579290450386e-02 1.4732964796060123e-03 0 0 0
122 1 5.0000000000000001e-03 2.6500000000000005e+03 3.0056754231221189e-01 3.3580601027277525e-03 4.9054379469509147e-03 0 0 0
123 1 3.0000000000000001e-03 2.6500000000000000e+03 2.9999767650567266e-01 5.7563647336356105e-03 8.5537401151015140e-03 0 0 0
124 1 6.0000000000000001e-03 2.6500000000000000e+03 3.0402777413261817e-01 4.1635222101443865e-03 9.5853742233265038e-03 0 0 0
125 1 4.0000000000000001e-03 2.6500000000000000e+03 2.9960553555496661e-01 1.2663562256341484e-02 1.0889613657152882e-02 0 0 0
126 1 3.0000000000000001e-03 2.6500000000000000e+03 2.9767550450934149e-01 4.1386035941255268e-03 9.5107375412759720e-03 0 0 0
127 1 3.0000000000000001e-03 2.6500000000000000e+03 2.9853276828785386e-01 2.3359733496763763e-03 1.4963759324066468e-03 0 0 0
128 1 3.0000000000000001e-03 2.6500000000000000e+03 3.0399873037026576e-01 1.0122848041632089e-02 3.5087455492694990e-03 0 0 0
129 1 4.0000000000000001e-03 2.6500000000000000e+03 3.0323495529053285e-01 1.2478243942176618e-02 9.3653813761155873e-03 0 0 0
130 1 3.0000000000000001e-03 2.6500000000000000e+03 3.0476876640675643e-01 4.7702934409518203e-03 3.5265936051616610e-03 0 0 0
131 1 3.0000000000000001e-03 2.6500000000000000e+03 2.9948621433096739e-01 1.8597771387466506e-03 8.4493520479097164e-03 0 0 0
133 1 3.0000000000000001e-03 2.6500000000000000e+03 3.0343728423497035e-01 1.2314782612754377e-02 1.4963759324066474e-03 0 0 0
134 1 3.0000000000000001e-03 2.6500000000000000e+03 3.0212780151890273e-01 4.8353993479398338e-04 8.1260267046387429e-03 0 0 0
135 1 3.0000000000000001e-03 2.6500000000000000e+03 3.0426952367970583e-01 7.9528175636718358e-03 1.4731123320021341e-03 0 0 0
136 1 5.0000000000000001e-03 2.6500000000000005e+03 3.0495854767896474e-01 9.8942931065675423e-04 4.7317544836905975e-03 0 0 0
138 1 3.0000000000000001e-03 2.6500000000000000e+03 3.0432475923597463e-01 8.2947594089007749e-03 6.9020584835681924e-03 0 0 0
139 1 4.0000000000000001e-03 2.6500000000000000e+03 3.0509214754147101e-01 1.0165843566498299e-02 1.2012220624244178e-02 0 0 0
140 1 3.0000000000000001e-03 2.6500000000000000e+03 3.0088780173640356e-01 4.5170985354253522e-04 1.4963759324066472e-03 0 1 0
137 1 3.0000000000000001e-03 2.6500000000000000e+03 3.0539980714531073e-01 7.5970427576296370e-03 4.1963515742892889e-03 0 0 0
141 1 3.0000000000000001e-03 2.6500000000000000e+03 3.0606263128366790e-01 1.0762753896987238e-02 1.4741030095812796e-03 0 0 0
142 1 3.0000000000000001e-03 2.6500000000000000e+03 3.0680021294016097e-01 6.1971018066862334e-03 1.4963757613505283e-03 0 0 0
143 1 7.0000000000000001e-03 2.6500000000000000e+03 3.0769393634403919e-01 1.1935513415352676e-02 6.2827045210738655e-03 0 0 0
144 1 3.0000000000000001e-03 2.6500000000000000e+03 3.0830788314873742e-01 1.1272235366335689e-02 1.1249718061009500e-02 0 0 0
145 1 4.0000000000000001e-03 2.6500000000000000e+03 3.0898125618870464e-01 8.9052766455334342e-03 1.9523341464345837e-03 0 0 0
146 1 3.0000000000000001e-03 2.6500000000000000e+03 3.1346254079847974e-01 6.6486137254741645e-03 1.4737801357618363e-03 0 0 0
147 1 3.0000000000000001e-03 2.6500000000000000e+03 3.0819754779651976e-01 3.5424153013056230e-03 1.4963761034679000e-03 0 0 0
148 1 3.0000000000000001e-03 2.6500000000000000e+03 3.1058337171198624e-01 5.8665686448105357e-03 1.4338249235274615e-03 0 0 0
149 1 7.0000000000000001e-03 2.6500000000000000e+03 3.0928953826649119e-01 5.1915319736429875e-03 6.1434306312930786e-03 0 0 0
150 1 3.0000000000000001e-03 2.6500000000000000e+03 3.1208777140810551e-01 1.0443906891076767e-02 1.4935324145042299e-03 0 0 0
151 1 3.0000000000000001e-03 2.6500000000000000e+03 3.1490990878597031e-01 1.9676104484045269e-03 1.4817809954651526e-03 0 0 0
152 1 4.0000000000000001e-03 2.6500000000000000e+03 3.1293016990497141e-01 8.9682648577643041e-03 4.5518442592483522e-03 0 0 0
153 1 3.0000000000000001e-03 2.6500000000000000e+03 3.1110680006439217e-01 8.5863343823704738e-04 7.8398140387055618e-03 0 0 0
154 1 3.0000000000000001e-03 2.6500000000000000e+03 3.1406626777696856e-01 3.3310268355498636e-03 8.2175855544774391e-03 0 0 0
155 1 3.0000000000000001e-03 2.6500000000000000e+03 3.1077486678268512e-01 9.9375890915249180e-03 9.6536908368104711e-03 0 0 0
156 1 5.0000000000000001e-03 2.6500000000000005e+03 3.1499922918668272e-01 4.9985290251798589e-03 4.7396007119194028e-03 0 0 0
157 1 5.0000000000000001e-03 2.6500000000000005e+03 3.1335763679680129e-01 7.1261669219225485e-03 1.0795636018689773e-02 0 0 0
158 1 4.0000000000000001e-03 2.6500000000000000e+03 3.0856557685520952e-01 3.0620186377989119e-03 1.1200934740799808e-02 0 0 0
159 1 3.0000000000000001e-03 2.6500000000000000e+03 3.1307842439115530e-01 1.0310162958783320e-02 7.7723473422143530e-03 0 0 0
160 1 3.0000000000000001e-03 2.6500000000000000e+03 3.1184985226085071e-01 2.6744165527102016e-03 1.0103550311118139e-02 0 0 0
161 1 5.0000000000000001e-03 2.6500000000000005e+03 3.1434108541537770e-01 1.1973025348757245e-02 1.1500919277332822e-02 0 0 0
163 1 4.0000000000000001e-03 2.6500000000000000e+03 3.1152908790146433e-01 2.5675908135525836e-03 1.9462721240508791e-03 0 1 0
164 1 3.0000000000000001e-03 2.6500000000000000e+03 3.0838122714427157e-01 3.5373476663866425e-04 6.6953687872656651e-03 0 1 0
165 1 5.0000000000000001e-03 2.6500000000000005e+03 3.1499712830666043e-01 1.2661032819548503e-02 3.0977120381958326e-03 0 0 0
166 1 3.0000000000000001e-03 2.6500000000000000e+03 3.1276421041324548e-01 1.7127602652703463e-03 5.2970257930187396e-03 0 0 0
167 1 3.0000000000000001e-03 2.6500000000000000e+03 3.1419765141155831e-01 1.5956589651152369e-03 1.1941435267292128e-02 0 0 0
168 1 3.0000000000000001e-03 2.6500000000000000e+03 3.1566662930094280e-01 1.2335085469743501e-03 5.8714951962684303e-03 0 0 0
173 1 3.0000000000000001e-03 2.6500000000000000e+03 3.1402293209233823e-01 3.4424953279971020e-04 8.2931483455343877e-03 0 0 0
534 1 4.0000000000000001e-03 2.6500000000000000e+03 3.0846406425184897e-01 4.8913110209216703e-05 1.9828744547665581e-03 0 1 0
170 1 4.0000000000000001e-03 2.6500000000000000e+03 3.1644625788510533e-01 3.8975744986551558e-03 1.0679679039853661e-02 0 0 0
171 1 4.0000000000000001e-03 2.6500000000000000e+03 3.1689206004883619e-01 8.7343302802075275e-03 1.9937512591894943e-03 0 0 0
172 1 3.0000000000000001e-03 2.6500000000000000e+03 3.1702325473653675e-01 6.4920394271119762e-04 1.1765812808787565e-02 0 0 0
174 1 3.0000000000000001e-03 2.6500000000000000e+03 3.1700920557862577e-01 5.2874195092783146e-03 1.4122801911996407e-03 0 0 0
175 1 3.0000000000000001e-03 2.6500000000000000e+03 3.1714703630182012e-01 1.3108187760212280e-03 8.4583482278446243e-03 0 1 0
176 1 7.0000000000000001e-03 2.6500000000000000e+03 3.1795385109503965e-01 9.2149159584283304e-03 7.6530422352851825e-03 0 0 0
177 1 3.0000000000000001e-03 2.6500000000000000e+03 3.1821342112795520e-01 3.0884267037446728e-03 5.7810880056703203e-03 0 0 0
178 1 3.0000000000000001e-03 2.6500000000000000e+03 3.1787603084360799e-01 2.0947319375361176e-03 1.4874276681220650e-03 0 0 0
179 1 3.0000000000000001e-03 2.6500000000000000e+03 3.2449395455775337e-01 7.3927402366809917e-03 1.4721043781627100e-03 0 0 0
180 1 6.0000000000000001e-03 2.6500000000000000e+03 3.2120266993103497e-01 4.7123266936789313e-03 2.9273490147085223e-03 0 0 0
181 1 5.0000000000000001e-03 2.6500000000000005e+03 3.2097594677773245e-01 1.0555787252123600e-02 2.4915639326199075e-03 0 0 0
182 1 4.0000000000000001e-03 2.6500000000000000e+03 3.1981143359072600e-01 4.0806343019881919e-03 8.6176158061094764e-03 0 0 0
183 1 3.0000000000000001e-03 2.6500000000000000e+03 3.2582544645181410e-01 1.7920541076839437e-03 3.8816518748374593e-03 0 0 0
184 1 3.0000000000000001e-03 2.6500000000000000e+03 3.2531064848045954e-01 3.5371398725866730e-03 1.4963752812216004e-03 0 0 0
185 1 5.0000000000000001e-03 2.6500000000000005e+03 3.2592423281219957e-01 6.4349644123125995e-03 5.0479572952206748e-03 0 0 0
186 1 3.0000000000000001e-03 2.6500000000000000e+03 3.2232156561370257e-01 8.0870829464364455e-03 5.5879472045719135e-03 0 0 0
187 1 3.0000000000000001e-03 2.6500000000000000e+03 3.2484208858281494e-01 1.0359908048767290e-02 1.4875643967432171e-03 0 0 0
188 1 6.0000000000000001e-03 2.6500000000000000e+03 3.2485107915530703e-01 1.0973694097621901e-02 7.8385378707290128e-03 0 0 0
189 1 5.0000000000000001e-03 2.6500000000000005e+03 3.2645094412906334e-01 2.7734026246681418e-03 8.6398134043596669e-03 0 0 0
190 1 3.0000000000000001e-03 2.6500000000000000e+03 3.2315433856972614e-01 4.2659076110637155e-03 6.9492655877357954e-03 0 0 0
191 1 3.0000000000000001e-03 2.6500000000000000e+03 3.2317140415056061e-01 1.3598532978673999e-03 5.0879639739379694e-03 0 0 0
192 1 5.0000000000000001e-03 2.6500000000000005e+03 3.2256481391924341e-01 6.8913964176694981e-03 1.0645300525650707e-02 0 0 0
193 1 3.0000000000000001e-03 2.6500000000000000e+03 3.2254290727042395e-01 2.8501978532434009e-03 1.0388008934532067e-02 0 0 0
196 1 3.0000000000000001e-03 2.6500000000000000e+03 3.2039040335626007e-01 4.8831796675065571e-04 1.4385360280508199e-03 0 1 0
197 1 3.0000000000000001e-03 2.6500000000000000e+03 3.2015444155123612e-01 1.0518975415646230e-03 1.0313951903125024e-02 0 0 0
198 1 3.0000000000000001e-03 2.6500000000000000e+03 3.2256857777433584e-01 1.1282683661892519e-03 7.9713737135307765e-03 0 1 0
199 1 3.0000000000000001e-03 2.6500000000000000e+03 3.2643932721036889e-01 7.2135860609913354e-03 9.8105341731290104e-03 0 0 0
200 1 3.0000000000000001e-03 2.6500000000000000e+03 3.2706994398473771e-01 6.6101186176460583e-04 1.4541053696553268e-03 0 0 0
201 1 3.0000000000000001e-03 2.6500000000000000e+03 3.2748124212721674e-01 5.6190046533936625e-03 1.4798368627641756e-03 0 0 0
202 1 4.0000000000000001e-03 2.6500000000000000e+03 3.2885443336697140e-01 3.1044852171854672e-03 4.8653401328353661e-03 0 0 0
203 1 6.0000000000000001e-03 2.6500000000000000e+03 3.2909882004755658e-01 1.0362015121490176e-02 2.9476228402582553e-03 0 0 0
204 1 4.0000000000000001e-03 2.6500000000000000e+03 3.3622219523609947e-01 6.0522233680025362e-03 2.4963718824978589e-03 0 0 0
205 1 3.0000000000000001e-03 2.6500000000000000e+03 3.2942582639888518e-01 2.6920672641299660e-03 1.4651631761106246e-03 0 0 0
206 1 5.0000000000000001e-03 2.6500000000000005e+03 3.3514769939284039e-01 1.2784948131414477e-02 2.6091210074630001e-03 0 0 0
207 1 5.0000000000000001e-03 2.6500000000000005e+03 3.3180271513807719e-01 5.6312846053596013e-03 2.6686755290750092e-03 0 0 0
208 1 4.0000000000000001e-03 2.6500000000000000e+03 3.3359566486463016e-01 1.5652547882568345e-03 1.9850435965539713e-03 0 0 0
209 1 3.0000000000000001e-03 2.6500000000000000e+03 3.3372482685754573e-01 9.1491208321437898e-03 1.4958510181651273e-03 0 0 0
210 1 5.0000000000000001e-03 2.6500000000000005e+03 3.3471835961080298e-01 5.9220498909149152e-03 7.1473075027450022e-03 0 0 0
211 1 3.0000000000000001e-03 2.6500000000000000e+03 3.3531326167409919e-01 9.0560286655691682e-03 4.0371258718911217e-03 0 0 0
212 1 3.0000000000000001e-03 2.6500000000000000e+03 3.3684913752794848e-01 2.7473213231644774e-03 1.4951849631377483e-03 0 0 0
213 1 5.0000000000000001e-03 2.6500000000000005e+03 3.2992493471098500e-01 6.8817569427413123e-03 7.9383248005005652e-03 0 0 0
214 1 4.0000000000000001e-03 2.6500000000000000e+03 3.3764043038960212e-01 5.9793458040196985e-03 1.0534473285399540e-02 0 0 0
215 1 4.0000000000000001e-03 2.6500000000000000e+03 3.2978093545329568e-01 1.1350068109448164e-02 7.7514302192573927e-03 0 0 0
216 1 4.0000000000000001e-03 2.6500000000000000e+03 3.3242528400492671e-01 2.1915753816851846e-03 6.3502639765510484e-03 0 0 0
217 1 6.0000000000000001e-03 2.6500000000000000e+03 3.3444080059497888e-01 1.3078503745359760e-03 1.1137988920465863e-02 0 0 0
218 1 5.0000000000000001e-03 2.6500000000000005e+03 3.3344361614054358e-01 6.6320119694287779e-03 1.1914293598037654e-02 0 0 0
219 1 3.0000000000000001e-03 2.6500000000000000e+03 3.3043373283203514e-01 3.0862689149887671e-03 9.0474659300342677e-03 0 0 0
220 1 4.0000000000000001e-03 2.6500000000000000e+03 3.3615685191925621e-01 1.7762087553935321e-03 5.0298071621588582e-03 0 0 0
221 1 7.0000000000000001e-03 2.6500000000000000e+03 3.3504931772243429e-01 1.1587917357611485e-02 9.0191838920898448e-03 0 0 0
222 1 3.0000000000000001e-03 2.6500000000000000e+03 3.3018614191886608e-01 2.7114794332803793e-04 1.0279398899414682e-02 0 1 0
223 1 3.0000000000000001e-03 2.6500000000000000e+03 3.3857898228249916e-01 9.1388824152523196e-03 1.1643539540710955e-02 0 0 0
224 1 3.0000000000000001e-03 2.6500000000000000e+03 3.3834805148279345e-01 1.0811435004337285e-02 5.1445977418846378e-03 0 0 0
226 1 4.0000000000000001e-03 2.6500000000000000e+03 3.3809169943677203e-01 9.5095518747654473e-03 1.9555171999421435e-03 0 0 0
225 1 3.0000000000000001e-03 2.6500000000000000e+03 3.3917956044868580e-01 4.6307118030651873e-03 1.4678930042451624e-03 0 0 0
228 1 3.0000000000000001e-03 2.6500000000000000e+03 3.3915751514899195e-01 2.2387079599146121e-03 3.3385673029333596e-03 0 0 0
229 1 5.0000000000000001e-03 2.6500000000000005e+03 3.3986809299335241e-01 1.5968737804384727e-03 9.3047659271407960e-03 0 0 0
230 1 3.0000000000000001e-03 2.6500000000000000e+03 3.4096772354535254e-01 7.4678927346701930e-03 1.0771519692115605e-02 0 0 0
231 1 3.0000000000000001e-03 2.6500000000000000e+03 3.4461333398919253e-01 9.6736848985218976e-03 1.4963759324066468e-03 0 0 0
232 1 4.0000000000000001e-03 2.6500000000000000e+03 3.4222377779624852e-01 3.0900866687434392e-03 1.9416199288996119e-03 0 0 0
233 1 4.0000000000000001e-03 2.6500000000000000e+03 3.4520003360456436e-01 5.6998539310153962e-03 1.9931690288703331e-03 0 0 0
234 1 3.0000000000000001e-03 2.6500000000000000e+03 3.4229571291089195e-01 7.6103089444364350e-03 1.4454694304629717e-03 0 0 0
235 1 7.0000000000000001e-03 2.6500000000000000e+03 3.4050591119326967e-01 6.4530260368245917e-03 5.9016151725641468e-03 0 0 0
236 1 7.0000000000000001e-03 2.6500000000000000e+03 3.4694595029131159e-01 9.0974437988370748e-03 6.1304144240155005e-03 0 0 0
237 1 5.0000000000000001e-03 2.6500000000000005e+03 3.4803026609313831e-01 2.3699078893122502e-03 3.4351160442421245e-03 0 0 0
238 1 3.0000000000000001e-03 2.6500000000000000e+03 3.4145554077601953e-01 1.0269205974488429e-02 2.5186261949685972e-03 0 0 0
239 1 4.0000000000000001e-03 2.6500000000000000e+03 3.4180239999691658e-01 1.1206355436085347e-03 5.3330931473787408e-03 0 1 0
240 1 7.0000000000000001e-03 2.6500000000000000e+03 3.4191258190163876e-01 1.2252002730263877e-02 9.6775652833577426e-03 0 0 0