thermo_log	./Thermos/thermo_botgen

atom_style	granular
atom_modify	map array
communicate	single vel yes
hard_particles	yes
processors	3 1 2

boundary	f p f
newton		off

units		si

region		reg block 0.26 0.7 0. 0.026 0. 0.2174 units box
create_box	3 reg
Created orthogonal box = (0.26 0 0) to (0.7 0.026 0.2174)
  3 by 1 by 2 MPI processor grid

neighbor	0.015 bin
neigh_modify	delay 0

# Material properties required for granular pair styles
#type1== base sand type2== sand layer type3== wall

fix         m1 all property/global youngsModulus peratomtype 4.6e7 4.6e7 4.6e7
fix         m2 all property/global poissonsRatio peratomtype 0.167 0.167 0.167
fix         m3 all property/global coefficientRestitution peratomtypepair 3 0.3 0.3 0.3 0.3 0.3 0.3 0.3 0.3 0.3
fix         m4 all property/global coefficientFriction peratomtypepair 3 0.5 0.5 0.5 0.5 0.5 0.5 0.5 0.5 0.5

# pair style
pair_style  gran model hertz tangential history
pair_coeff  * *

# timestep, gravity
timestep    1e-5

# Groups
group		sand type 2
0 atoms in group sand
group		bot type 1
0 atoms in group bot
group 		wall type 3
0 atoms in group wall

# Mesh velocity
variable 	mvel equal "0.275*sin(2*3.14159*50*step*dt)"

# Walls
fix             xwal1 all wall/gran model hertz tangential history primitive type 2 xplane 0.26
fix             xwal2 all wall/gran model hertz tangential history primitive type 2 xplane 0.7
fix		zwal2 all mesh/surface file cad/holder.stl type 2
fix		zwal3 all mesh/surface file cad/bottom.stl type 2 surface_vel v_mvel 0. 0.
fix		holder all wall/gran model hertz tangential history mesh n_meshes 2 meshes zwal2 zwal3

# Particle templates
fix             pts1 all particletemplate/sphere 13451 atom_type 1 density constant 2650 radius constant 1.5e-3
fix             pts2 all particletemplate/sphere 29411 atom_type 1 density constant 2650 radius constant 2.0e-3
fix             pts3 all particletemplate/sphere 29423 atom_type 1 density constant 2650 radius constant 2.5e-3
fix             pts4 all particletemplate/sphere 50021 atom_type 1 density constant 2650 radius constant 3.0e-3
fix             pts5 all particletemplate/sphere 50023 atom_type 1 density constant 2650 radius constant 3.5e-3
#fix             pts6 all particletemplate/sphere 50033 atom_type 1 density constant 2650 radius constant 1.16e-3
#fix             pts7 all particletemplate/sphere 50047 atom_type 1 density constant 2650 radius constant 1.28e-3
fix             pdd1 all particledistribution/discrete 15485867 5 pts1 0.21 pts2 0.17 pts3 0.19 pts4 0.18 pts5 0.25
#fix		pdd2 all particledistribution/discrete 50033 2 pts1 0.5 pts5 0.5

# Regions
region		lreg block 0.26 0.5217 0. 0.026 0.04348 0.2174
region		mreg block 0.5217 0.526 0. 0.026 0. 0.02174
region		rreg block 0.526 0.7 0. 0.026 0.04348 0.2174

fix		gravi bot gravity 225 vector 0. 0. -1.

# insert the base layer
fix		ins1 bot insert/pack seed 999979 distributiontemplate pdd1 maxattempt 1000 overlapcheck yes all_in yes insert_every once region lreg volumefraction_region 0.3

#fix		ins2 bot insert/pack seed 12007 distributiontemplate pdd2 maxattempt 1000 overlapcheck yes all_in yes insert_every once region mreg volumefraction_region 0.31

fix		ins3 bot insert/pack seed 12011 distributiontemplate pdd1 maxattempt 1000 overlapcheck yes all_in yes insert_every once region rreg volumefraction_region 0.3

# apply integrators
fix		int1 bot nve/sphere

# Define variables
variable	shakets equal "15/dt"
variable	relaxts equal "1/dt"
variable 	dmpst equal "(v_shakets+v_relaxts)/200"
variable	resstep equal "(v_shakets+v_relaxts)/50"

# Define computes
compute		cord all contact/atom
compute		centerOM all com

# Screen output
thermo_style	custom step atoms ke cpu c_centerOM[3] v_mvel
thermo		1000
thermo_modify	lost ignore norm no

# Insert particles
run		1
Setting up run at Fri Oct  9 19:20:42 2020

INFO: Particle insertion ins1: inserting every 0 steps
INFO: Particle insertion ins3: inserting every 0 steps
Memory usage per processor = 9.21239 Mbytes
    Step    Atoms         KinEng            CPU       centerOM           mvel 
       0        0              0              0              0              0 
INFO: Particle insertion ins1: inserted 9165 particle templates (mass 9.404225e-01) at step 1
 - a total of 9165 particle templates (mass 9.404225e-01) inserted so far.
INFO: Particle insertion ins3: inserted 6093 particle templates (mass 6.245483e-01) at step 1
 - a total of 6093 particle templates (mass 6.245483e-01) inserted so far.
       1    15258  9.9033308e-07       0.164134      0.2049722  0.00086393583 
Loop time of 0.164192 on 6 procs for 1 steps with 15258 atoms, finish time Fri Oct  9 19:20:42 2020


Pair  time (%) = 0.0104067 (6.3381)
Neigh time (%) = 0.0564998 (34.4108)
Comm  time (%) = 0.0344582 (20.9865)
Outpt time (%) = 0.00787663 (4.79721)
Other time (%) = 0.0549506 (33.4673)

Nlocal:    2543 ave 3305 max 1798 min
Histogram: 3 0 0 0 0 0 0 0 1 2
Nghost:    7053.67 ave 9136 max 5489 min
Histogram: 2 1 0 0 0 0 1 1 0 1
Neighs:    340256 ave 453641 max 233755 min
Histogram: 3 0 0 0 0 0 0 0 1 2

Total # of neighbors = 2041537
Ave neighs/atom = 133.801
Neighbor list builds = 1
Dangerous builds = 0
dump		dmp1 all custom ${dmpst} post/basegen/atoms*.txt id x y z radius
dump		dmp1 all custom 8000 post/basegen/atoms*.txt id x y z radius
dump		dmp2 all custom ${dmpst} post/basecoord/coord*.txt c_cord
dump		dmp2 all custom 8000 post/basecoord/coord*.txt c_cord
restart		${resstep} restart/base/res
restart		32000 restart/base/res
unfix		ins1
#unfix		ins2
unfix		ins3


run		${shakets} upto
run		1500000 upto
Setting up run at Fri Oct  9 19:20:42 2020

Memory usage per processor = 19.9741 Mbytes
    Step    Atoms         KinEng            CPU       centerOM           mvel 
       1    15258  9.9033308e-07              0     0.13097509  0.00086393583 
    1000    15258       3.957372      8.3241457     0.11973634  7.2973719e-07 
    2000    15258      15.539168      15.911524    0.086009987 -1.4594744e-06 
    3000    15258       13.01959      30.362071    0.047580267  2.1892116e-06 
    4000    15258     0.48984642      58.096554      0.0441641 -2.9189488e-06 
    5000    15258     0.37333728      82.859991    0.043258636   3.648686e-06 
    6000    15258    0.037863427      110.16024    0.041892171 -4.3784232e-06 
    7000    15258    0.025969868      138.23165    0.041444309  5.1081604e-06 
    8000    15258    0.017121351      166.86196    0.041364088 -5.8378975e-06 
    9000    15258    0.017208855      195.13197    0.041353605  6.5676347e-06 
   10000    15258    0.018729846      223.22298     0.04132942 -7.2973719e-06 
   11000    15258    0.020822186        251.294    0.041290197  8.0271091e-06 
   12000    15258    0.022959421      279.43038    0.041260526 -8.7568463e-06 
   13000    15258    0.024074786      307.49172    0.041219326  9.4865835e-06 
   14000    15258    0.024526758      335.76737    0.041193682 -1.0216321e-05 
   15000    15258    0.025592729      363.96577     0.04115381  1.0946058e-05 
   16000    15258    0.025555766      392.78865    0.041136568 -1.1675795e-05 
   17000    15258    0.026917233      421.57212    0.041106948  1.2405532e-05 
   18000    15258    0.026395235      450.27773    0.041091466 -1.3135269e-05 
   19000    15258    0.027691632      479.00062     0.04106166  1.3865007e-05 
   20000    15258    0.028013812      508.01622    0.041052022 -1.4594744e-05 
   21000    15258    0.028358518      537.15666    0.041021306  1.5324481e-05 
   22000    15258    0.027121372      566.22171    0.041007933 -1.6054218e-05 
   23000    15258    0.028729859      595.18879    0.040976497  1.6783955e-05 
   24000    15258    0.027957324        624.152    0.040973667 -1.7513693e-05 
   25000    15258    0.028708795      653.06684    0.040936969   1.824343e-05 
   26000    15258    0.027972375      681.94703    0.040937479 -1.8973167e-05 
   27000    15258    0.028372152      710.82509    0.040898511  1.9702904e-05 
   28000    15258    0.027632315         739.73     0.04090237 -2.0432641e-05 
   29000    15258    0.027192013      768.55609    0.040868846  2.1162379e-05 
   30000    15258    0.026425297      797.50551     0.04087199 -2.1892116e-05 
   31000    15258    0.027409939       826.3336    0.040847684  2.2621853e-05 
   32000    15258    0.027326281      855.48423    0.040851115  -2.335159e-05 
   33000    15258    0.027685115      884.33365    0.040829388  2.4081327e-05 
   34000    15258    0.027355172      913.15478    0.040824581 -2.4811065e-05 
   35000    15258    0.027525806      941.89282    0.040804915  2.5540802e-05 
   36000    15258    0.027331133      970.69179    0.040805696 -2.6270539e-05 
   37000    15258    0.027023061      999.41489    0.040788539  2.7000276e-05 
   38000    15258    0.026740623       1028.265    0.040781911 -2.7730013e-05 
   39000    15258    0.026564417      1057.1739    0.040763131   2.845975e-05 
   40000    15258    0.027239467      1086.0925    0.040758293 -2.9189488e-05 
   41000    15258     0.02720599      1114.9468     0.04074165  2.9919225e-05 
   42000    15258    0.026928571      1143.8605    0.040737874 -3.0648962e-05 
   43000    15258    0.025990775      1172.8423    0.040723583  3.1378699e-05 
   44000    15258    0.026187677      1201.8002    0.040718909 -3.2108436e-05 
   45000    15258    0.026333355      1230.7052    0.040706582  3.2838174e-05 
   46000    15258    0.025337882      1259.4668      0.0407018 -3.3567911e-05 
   47000    15258    0.025184704      1288.3778    0.040688261  3.4297648e-05 
   48000    15258    0.025132808      1317.1196     0.04068498 -3.5027385e-05 
   49000    15258    0.025022609      1345.7918    0.040673163  3.5757122e-05 
   50000    15258    0.024989248      1374.4878    0.040664103  -3.648686e-05 
   51000    15258    0.025522807      1403.4236    0.040656722  3.7216597e-05 
   52000    15258    0.025461388      1432.2146    0.040649621 -3.7946334e-05 
   53000    15258    0.026222728      1461.1351    0.040643886  3.8676071e-05 
   54000    15258    0.026352724      1490.2981    0.040637144 -3.9405808e-05 
   55000    15258    0.026912584      1519.4302    0.040630546  4.0135545e-05 
   56000    15258    0.026384754      1548.6007    0.040622399 -4.0865283e-05 
   57000    15258    0.026236713      1577.7276    0.040615853   4.159502e-05 
   58000    15258     0.02608011       1607.201    0.040602615 -4.2324757e-05 
   59000    15258    0.024827561      1636.6871    0.040599611  4.3054494e-05 
   60000    15258    0.024886032      1666.2316    0.040585735 -4.3784231e-05 
   61000    15258    0.024165197      1695.8061    0.040580148  4.4513969e-05 
   62000    15258    0.024226762      1725.5348    0.040570212 -4.5243706e-05 
   63000    15258    0.022791632      1755.2024    0.040563823  4.5973443e-05 
   64000    15258      0.0231084      1785.1131    0.040555372  -4.670318e-05 
   65000    15258    0.022394789      1815.2961    0.040548777  4.7432917e-05 
   66000    15258    0.022316304      1844.5193    0.040543383 -4.8162654e-05 
   67000    15258    0.021188152      1873.7169    0.040536993  4.8892392e-05 
   68000    15258    0.021169588      1902.8699    0.040533494 -4.9622129e-05 
   69000    15258    0.021061502      1931.9843    0.040523364  5.0351866e-05 
   70000    15258    0.021097951      1961.1449    0.040521079 -5.1081603e-05 
   71000    15258     0.02090217      1990.3741    0.040510355   5.181134e-05 
   72000    15258    0.021408905      2019.5381    0.040511352 -5.2541078e-05 
   73000    15258    0.020773959      2048.6345    0.040502862  5.3270815e-05 
   74000    15258    0.020837901      2077.7825    0.040503279 -5.4000552e-05 
   75000    15258    0.019918611      2106.9381    0.040494489  5.4730289e-05 
   76000    15258    0.019953824      2136.1199    0.040495651 -5.5460026e-05 
   77000    15258    0.019042901       2165.382    0.040486055  5.6189763e-05 
   78000    15258    0.018593241       2194.704    0.040485411 -5.6919501e-05 
   79000    15258    0.018617929       2223.959    0.040474303  5.7649238e-05 
   80000    15258     0.01827597      2253.2238    0.040473205 -5.8378975e-05 
   81000    15258    0.018307878      2282.2544    0.040462095  5.9108712e-05 
   82000    15258    0.018615377      2311.3601    0.040464233 -5.9838449e-05 
   83000    15258    0.018258617      2340.4284    0.040453464  6.0568187e-05 
   84000    15258    0.018323604      2369.5274    0.040454155 -6.1297924e-05 
   85000    15258    0.017829513      2398.6436    0.040442973  6.2027661e-05 
   86000    15258    0.018613901      2428.0325    0.040445268 -6.2757398e-05 
   87000    15258     0.01854925      2457.2107    0.040436975  6.3487135e-05 
   88000    15258    0.017688846      2486.4952    0.040442631 -6.4216872e-05 
   89000    15258    0.018009149      2515.6334    0.040427999   6.494661e-05 
   90000    15258     0.01772315      2544.9243    0.040432825 -6.5676347e-05 
   91000    15258    0.017633111      2574.3467    0.040419129  6.6406084e-05 
   92000    15258    0.017782939      2603.6825    0.040421144 -6.7135821e-05 
   93000    15258    0.017054304      2632.9212    0.040409954  6.7865558e-05 
   94000    15258    0.016901788      2662.1587     0.04041231 -6.8595295e-05 
   95000    15258    0.017041136      2691.4127    0.040403116  6.9325033e-05 
   96000    15258    0.017855434       2721.305    0.040402793  -7.005477e-05 
   97000    15258    0.017225729      2750.5981    0.040395295  7.0784507e-05 
   98000    15258    0.017062192      2779.8706    0.040395078 -7.1514244e-05 
   99000    15258    0.016644478      2809.1068      0.0403883  7.2243981e-05 
  100000    15258    0.016855083      2838.3466    0.040386631 -7.2973718e-05 
  101000    15258    0.016407252      2867.5431    0.040380291  7.3703456e-05 
  102000    15258     0.01644314      2896.8014    0.040379454 -7.4433193e-05 
  103000    15258    0.016146223      2926.0557    0.040369713   7.516293e-05 
  104000    15258    0.016627169      2955.3618    0.040370268 -7.5892667e-05 
  105000    15258    0.016384063      2984.6004    0.040360422  7.6622404e-05 
  106000    15258    0.015708265      3013.8567     0.04036435 -7.7352141e-05 
  107000    15258    0.015165724      3043.1147    0.040351983  7.8081879e-05 
  108000    15258    0.014420061      3072.3485    0.040357637 -7.8811616e-05 
  109000    15258    0.014275892      3101.5811    0.040344287  7.9541353e-05 
  110000    15258    0.014453558      3130.8727    0.040347947  -8.027109e-05 
  111000    15258    0.014723975      3160.2555    0.040338615  8.1000827e-05 
  112000    15258    0.015374944      3189.8506     0.04034389 -8.1730564e-05 
  113000    15258    0.015310352      3219.2091    0.040337077  8.2460302e-05 
  114000    15258    0.015242439      3248.8879    0.040341585 -8.3190039e-05 
  115000    15258    0.014944128      3278.8718    0.040333231  8.3919776e-05 
  116000    15258    0.015077687       3308.899    0.040337897 -8.4649513e-05 
  117000    15258    0.015126333      3338.8705    0.040331052   8.537925e-05 
  118000    15258    0.015580045      3368.6797    0.040331673 -8.6108987e-05 
  119000    15258    0.014742247      3398.3857     0.04032809  8.6838725e-05 
  120000    15258    0.014314332      3428.1409    0.040329006 -8.7568462e-05 
  121000    15258    0.014095499      3457.7541    0.040321507  8.8298199e-05 
  122000    15258     0.01406322      3489.0261     0.04032067 -8.9027936e-05 
  123000    15258    0.013951853      3518.6707      0.0403168  8.9757673e-05 
  124000    15258    0.014446695      3548.2871    0.040316755  -9.048741e-05 
  125000    15258    0.014573802      3577.8852    0.040312748  9.1217147e-05 
  126000    15258    0.015199722      3607.4967     0.04031327 -9.1946885e-05 
  127000    15258    0.014580536      3637.0822    0.040307391  9.2676622e-05 
  128000    15258    0.014713025      3666.8432    0.040308651 -9.3406359e-05 
  129000    15258     0.01401382      3696.0409    0.040303701  9.4136096e-05 
  130000    15258    0.014646123      3725.3729    0.040302888 -9.4865833e-05 
  131000    15258    0.013593237      3754.6208    0.040298119   9.559557e-05 
  132000    15258    0.013907237      3783.9019    0.040297579 -9.6325308e-05 
  133000    15258    0.013490203      3813.1473    0.040292481  9.7055045e-05 
  134000    15258    0.014709372      3842.3887      0.0402934 -9.7784782e-05 
  135000    15258    0.013811759      3871.7588    0.040290749  9.8514519e-05 
  136000    15258    0.014041703      3901.2199    0.040289076 -9.9244256e-05 
  137000    15258    0.013189327      3930.6442    0.040285275  9.9973993e-05 
  138000    15258     0.01361375       3960.063    0.040287142 -0.00010070373 
  139000    15258    0.012776122      3989.3878    0.040283944  0.00010143347 
  140000    15258    0.013014226      4018.7979    0.040281815  -0.0001021632 
  141000    15258    0.012452698      4048.1214    0.040280086  0.00010289294 
  142000    15258    0.012841908      4077.4266    0.040277576 -0.00010362268 
  143000    15258    0.012534818      4106.8013    0.040277588  0.00010435242 
  144000    15258    0.012974328      4136.3382    0.040273699 -0.00010508215 
  145000    15258    0.012379123      4165.7414    0.040273143  0.00010581189 
  146000    15258    0.012520634      4195.1335    0.040267796 -0.00010654163 
  147000    15258    0.012103769      4224.4325    0.040266755  0.00010727136 
  148000    15258    0.012592399      4253.7184    0.040265153  -0.0001080011 
  149000    15258    0.011703353      4283.1097    0.040266054  0.00010873084 
  150000    15258    0.011752538      4312.6571    0.040260176 -0.00010946058 
  151000    15258    0.011371609      4342.0487    0.040258956  0.00011019031 
  152000    15258    0.011581991      4371.5288     0.04025512 -0.00011092005 
  153000    15258    0.011109004      4400.7981    0.040254536  0.00011164979 
  154000    15258    0.011785043      4429.9985    0.040250593 -0.00011237952 
  155000    15258    0.011512451      4459.2597     0.04025205  0.00011310926 
  156000    15258     0.01206432      4488.4618    0.040249518   -0.000113839 
  157000    15258    0.011798938      4517.6628    0.040246586  0.00011456874 
  158000    15258    0.012039522      4546.8619    0.040245426 -0.00011529847 
  159000    15258    0.011490405      4576.0788    0.040243345  0.00011602821 
  160000    15258    0.011701709      4605.5041    0.040240012 -0.00011675795 
  161000    15258    0.010946199      4634.8172    0.040237468  0.00011748768 
  162000    15258    0.011236179      4664.1473    0.040236679 -0.00011821742 
  163000    15258    0.010895467      4693.5839    0.040233698  0.00011894716 
  164000    15258    0.011122415      4723.1874    0.040235139  -0.0001196769 
  165000    15258     0.01073775      4752.6029    0.040231942  0.00012040663 
  166000    15258    0.011139337      4782.0146    0.040230599 -0.00012113637 
  167000    15258    0.010842699      4811.4238    0.040228137  0.00012186611 
  168000    15258    0.010736331      4840.8924    0.040227987 -0.00012259584 
  169000    15258   0.0099292901      4870.3131    0.040223824  0.00012332558 
  170000    15258    0.010179701      4899.7414    0.040225491 -0.00012405532 
  171000    15258    0.010186785      4929.1044    0.040221593  0.00012478506 
  172000    15258    0.010436648      4958.8549     0.04022268 -0.00012551479 
  173000    15258    0.010601365      4988.3289    0.040218637  0.00012624453 
  174000    15258    0.010472051      5017.6918    0.040218941 -0.00012697427 
  175000    15258    0.010758555      5047.0263    0.040216895    0.000127704 
  176000    15258    0.010717043      5076.4494    0.040213675 -0.00012843374 
  177000    15258    0.010393773      5105.8276    0.040213982  0.00012916348 
  178000    15258    0.010351202      5135.1865    0.040213052 -0.00012989322 
  179000    15258   0.0099148629       5164.529    0.040210536  0.00013062295 
  180000    15258    0.010122893      5193.8718     0.04021027 -0.00013135269 
  181000    15258    0.010399137      5223.2159    0.040207845  0.00013208243 
  182000    15258    0.010389905        5252.55    0.040209295 -0.00013281216 
  183000    15258     0.01046177      5281.9823    0.040205352   0.0001335419 
  184000    15258    0.010623458      5311.6496    0.040205103 -0.00013427164 
  185000    15258    0.010458113       5341.165    0.040204555  0.00013500138 
  186000    15258    0.010265452       5370.716    0.040202067 -0.00013573111 
  187000    15258   0.0099375507      5399.9962    0.040202058  0.00013646085 
  188000    15258   0.0098245431      5429.2837    0.040197294 -0.00013719059 
  189000    15258   0.0099082399      5458.6774    0.040196648  0.00013792032 
  190000    15258   0.0098554752      5488.1017    0.040194608 -0.00013865006 
  191000    15258   0.0099388553      5517.4548    0.040193536   0.0001393798 
  192000    15258   0.0099829663      5547.0281    0.040190141 -0.00014010954 
  193000    15258   0.0097412193      5576.5901    0.040190519  0.00014083927 
  194000    15258   0.0092530026      5606.0613    0.040191282 -0.00014156901 
  195000    15258   0.0092833126       5635.384    0.040190432  0.00014229875 
  196000    15258   0.0091628834      5664.8542    0.040189257 -0.00014302848 
  197000    15258   0.0092143479      5694.3359    0.040186043  0.00014375822 
  198000    15258   0.0090772738      5723.7314    0.040185821 -0.00014448796 
  199000    15258   0.0091110266       5753.116    0.040182418  0.00014521769 
  200000    15258   0.0092883776       5782.576    0.040187217 -0.00014594743 
  201000    15258    0.009264845      5811.9457    0.040180355  0.00014667717 
  202000    15258   0.0090116218      5841.3518    0.040185878 -0.00014740691 
  203000    15258   0.0086798922      5870.7082    0.040178101  0.00014813664 
  204000    15258   0.0085701574       5900.077    0.040182038 -0.00014886638 
  205000    15258   0.0080286664      5929.4842    0.040174355  0.00014959612 
  206000    15258   0.0079928722      5958.9463    0.040178934 -0.00015032585 
  207000    15258   0.0077498408      5988.3368    0.040172156  0.00015105559 
  208000    15258   0.0077160497      6017.8286    0.040175937 -0.00015178533 
  209000    15258   0.0074987276      6047.2503    0.040167615  0.00015251507 
  210000    15258   0.0074542978      6076.6183      0.0401741  -0.0001532448 
  211000    15258   0.0072868826      6105.9734    0.040165568  0.00015397454 
  212000    15258   0.0076262452      6135.3635    0.040168485 -0.00015470428 
  213000    15258   0.0074602709      6164.9108    0.040159865  0.00015543401 
  214000    15258   0.0078586967      6194.4249    0.040164242 -0.00015616375 
  215000    15258   0.0074060457      6223.9411    0.040157931  0.00015689349 
  216000    15258   0.0073870281      6253.6934    0.040164336 -0.00015762323 
  217000    15258   0.0069848605      6284.4564    0.040157266  0.00015835296 
  218000    15258   0.0071408382      6314.1254    0.040162661  -0.0001590827 
  219000    15258   0.0071053216      6343.7128    0.040155203  0.00015981244 
  220000    15258    0.007222821      6373.3534    0.040160132 -0.00016054217 
  221000    15258   0.0069653313      6402.7928    0.040156987  0.00016127191 
  222000    15258   0.0073035527      6432.1245     0.04015764 -0.00016200165 
  223000    15258   0.0072624838      6461.4967    0.040156062  0.00016273138 
  224000    15258    0.007410121      6491.2066    0.040153596 -0.00016346112 
  225000    15258   0.0073560798      6520.6644    0.040151024  0.00016419086 
  226000    15258   0.0073463858      6550.1142    0.040149607  -0.0001649206 
  227000    15258   0.0070517018      6579.5364    0.040149493  0.00016565033 
  228000    15258   0.0070555997      6608.9898    0.040146753 -0.00016638007 
  229000    15258   0.0069653515      6638.4391    0.040147879  0.00016710981 
  230000    15258   0.0072962365      6667.8556    0.040146845 -0.00016783954 
  231000    15258   0.0073737496      6697.2678    0.040145044  0.00016856928 
  232000    15258    0.007453589      6726.7449    0.040144618 -0.00016929902 
  233000    15258   0.0069137419       6756.146     0.04014262  0.00017002876 
  234000    15258   0.0070055841      6785.7371    0.040143052 -0.00017075849 
  235000    15258   0.0070889967      6815.1354    0.040139666  0.00017148823 
  236000    15258   0.0071488205      6844.5905    0.040143178 -0.00017221797 
  237000    15258   0.0068451269      6874.1014    0.040139153   0.0001729477 
  238000    15258   0.0069957729      6903.5777    0.040140441 -0.00017367744 
  239000    15258   0.0066353631      6933.4439    0.040136676  0.00017440718 
  240000    15258   0.0069282786      6963.0434    0.040137431 -0.00017513691 
  241000    15258   0.0064896296      6992.4731    0.040135067  0.00017586665 
  242000    15258   0.0066738627      7021.9083    0.040136244 -0.00017659639 
  243000    15258   0.0062391088      7051.4125    0.040132465  0.00017732613 
  244000    15258   0.0066706714       7082.771    0.040133758 -0.00017805586 
  245000    15258   0.0065107008      7112.5073    0.040127006   0.0001787856 
  246000    15258   0.0068989751      7141.9597    0.040130189 -0.00017951534 
  247000    15258   0.0068069525      7171.4372    0.040122438  0.00018024507 
  248000    15258   0.0072952926      7200.9007    0.040128269 -0.00018097481 
  249000    15258   0.0068613898      7230.3471    0.040120373  0.00018170455 
  250000    15258   0.0069762098      7259.7759    0.040125345 -0.00018243428 
  251000    15258   0.0066641334      7289.2996    0.040117896  0.00018316402 
  252000    15258   0.0067176514      7319.0397    0.040124631 -0.00018389376 
  253000    15258   0.0064879553      7348.7226    0.040116722   0.0001846235 
  254000    15258   0.0066743205      7378.3126    0.040124022 -0.00018535323 
  255000    15258   0.0064852949      7407.7274    0.040115863  0.00018608297 
  256000    15258   0.0069575739      7437.2371    0.040121947 -0.00018681271 
  257000    15258   0.0066672413       7466.753    0.040114793  0.00018754244 
  258000    15258    0.006870949      7496.3348    0.040121458 -0.00018827218 
  259000    15258   0.0066635189      7525.9298    0.040114793  0.00018900192 
  260000    15258   0.0068382631       7555.618    0.040119216 -0.00018973166 
  261000    15258   0.0067557599      7585.2832    0.040113862  0.00019046139 
  262000    15258    0.007139968      7614.9452     0.04011734 -0.00019119113 
  263000    15258   0.0071362789      7644.6574     0.04011177  0.00019192087 
  264000    15258   0.0073404607      7674.5526    0.040116321  -0.0001926506 
  265000    15258   0.0070981765      7704.1358    0.040111196  0.00019338034 
  266000    15258   0.0072941711      7733.6976    0.040114161 -0.00019411008 
  267000    15258   0.0072871675      7763.2998    0.040107653  0.00019483981 
  268000    15258    0.007446212      7792.8507     0.04011295 -0.00019556955 
  269000    15258   0.0071981438      7822.3773    0.040106557  0.00019629929 
  270000    15258    0.007248882      7851.9344    0.040108591 -0.00019702903 
  271000    15258   0.0071134006      7881.4418    0.040104823  0.00019775876 
  272000    15258   0.0076198611      7910.9342    0.040107756  -0.0001984885 
  273000    15258    0.007355952       7940.367    0.040101288  0.00019921824 
  274000    15258   0.0076126773      7969.8081    0.040107263 -0.00019994797 
  275000    15258       0.007553      7999.3031     0.04009997  0.00020067771 
  276000    15258   0.0078641001      8028.7379    0.040105096 -0.00020140745 
  277000    15258   0.0076589235      8058.1735    0.040098556  0.00020213718 
  278000    15258   0.0081369838      8087.6343    0.040102857 -0.00020286692 
  279000    15258   0.0077167656      8117.0516    0.040098126  0.00020359666 
  280000    15258   0.0078987503      8146.5315     0.04010278  -0.0002043264 
  281000    15258   0.0078448946      8175.9777    0.040097877  0.00020505613 
  282000    15258    0.008258531      8205.4067    0.040101603 -0.00020578587 
  283000    15258   0.0081131614       8234.819    0.040094009  0.00020651561 
  284000    15258   0.0082987425        8264.37    0.040096577 -0.00020724534 
  285000    15258   0.0082808166      8293.9607    0.040093378  0.00020797508 
  286000    15258   0.0082991237      8323.5353    0.040095359 -0.00020870482 
  287000    15258   0.0078848808      8353.1214    0.040094535  0.00020943455 
  288000    15258   0.0077192047      8382.8195    0.040096118 -0.00021016429 
  289000    15258    0.007701418      8412.3641    0.040093062  0.00021089403 
  290000    15258   0.0078460702      8442.0002    0.040094348 -0.00021162377 
  291000    15258   0.0077850417      8471.5962    0.040092918   0.0002123535 
  292000    15258    0.007565832      8501.3464    0.040093591 -0.00021308324 
  293000    15258   0.0074163161      8531.0052    0.040092254  0.00021381298 
  294000    15258   0.0074070696      8560.9806    0.040091449 -0.00021454271 
  295000    15258   0.0071755165      8590.4894    0.040091263  0.00021527245 
  296000    15258    0.007492031      8619.9888    0.040088261 -0.00021600219 
  297000    15258   0.0070722556      8649.4243    0.040087487  0.00021673192 
  298000    15258    0.007035067      8678.9358    0.040087401 -0.00021746166 
  299000    15258   0.0068513977      8708.3411    0.040088289   0.0002181914 
  300000    15258   0.0072724666      8737.8252    0.040086486 -0.00021892113 
  301000    15258   0.0069164541      8767.2599    0.040088446  0.00021965087 
  302000    15258   0.0071511721      8796.7112    0.040087707 -0.00022038061 
  303000    15258   0.0069243962      8826.1218    0.040087239  0.00022111035 
  304000    15258   0.0075105171      8855.5909    0.040086743 -0.00022184008 
  305000    15258   0.0075131024      8885.0217    0.040088939  0.00022256982 
  306000    15258   0.0079116794      8914.4465    0.040086521 -0.00022329956 
  307000    15258   0.0073215618       8943.864    0.040087871  0.00022402929 
  308000    15258   0.0077999972      8973.3195    0.040083532 -0.00022475903 
  309000    15258   0.0076253414      9002.7622    0.040087162  0.00022548877 
  310000    15258   0.0077231781      9032.1715    0.040083099  -0.0002262185 
  311000    15258   0.0073695451      9061.6273    0.040083529  0.00022694824 
  312000    15258   0.0072874426      9091.2046    0.040081146 -0.00022767798 
  313000    15258   0.0069521923      9120.8613    0.040081904  0.00022840772 
  314000    15258   0.0071679325      9150.4084    0.040079164 -0.00022913745 
  315000    15258   0.0068107444      9180.0454    0.040077946  0.00022986719 
  316000    15258   0.0071263232      9209.6204    0.040077206 -0.00023059693 
  317000    15258   0.0067101722       9239.338      0.0400771  0.00023132666 
  318000    15258   0.0069107428      9268.9497     0.04007439  -0.0002320564 
  319000    15258   0.0067166749      9298.5109    0.040075093  0.00023278614 
  320000    15258   0.0066529291      9328.1749    0.040074038 -0.00023351587 
  321000    15258   0.0065386137      9358.0334    0.040074949  0.00023424561 
  322000    15258   0.0068143499      9387.6606    0.040072785 -0.00023497535 
  323000    15258   0.0066863194      9417.2581    0.040073975  0.00023570508 
  324000    15258   0.0068082657      9446.8346     0.04006988 -0.00023643482 
  325000    15258   0.0065995742      9476.5668    0.040071204  0.00023716456 
  326000    15258     0.00671305      9506.3985    0.040067591  -0.0002378943 
  327000    15258   0.0063710048      9536.2156    0.040068725  0.00023862403 
  328000    15258   0.0065667682      9565.8675    0.040065079 -0.00023935377 
  329000    15258   0.0066732204      9595.4683    0.040066005  0.00024008351 
  330000    15258   0.0067762245      9625.1226    0.040065572 -0.00024081324 
  331000    15258   0.0064231111      9654.6224    0.040064025  0.00024154298 
  332000    15258   0.0064389359       9684.121    0.040063085 -0.00024227272 
  333000    15258   0.0062815995      9713.6158    0.040062553  0.00024300245 
  334000    15258   0.0065158736      9743.1507     0.04006342 -0.00024373219 
  335000    15258   0.0063112555      9772.6294    0.040060086  0.00024446193 
  336000    15258   0.0065643242      9802.2511    0.040062436 -0.00024519166 
  337000    15258   0.0061109731      9831.7503    0.040057992   0.0002459214 
  338000    15258   0.0061456663      9861.4825    0.040061365 -0.00024665114 
  339000    15258    0.006121371      9891.1283    0.040056558  0.00024738088 
  340000    15258   0.0065676067      9920.7488    0.040061363 -0.00024811061 
  341000    15258   0.0064883514      9950.3189    0.040055104  0.00024884035 
  342000    15258    0.006619155      9979.9486    0.040059518 -0.00024957009 
  343000    15258   0.0064997864      10009.572    0.040054083  0.00025029982 
  344000    15258   0.0066368262      10040.127    0.040055215 -0.00025102956 
  345000    15258   0.0063632105      10069.644    0.040053274   0.0002517593 
  346000    15258   0.0062162681      10099.177    0.040055624 -0.00025248903 
  347000    15258   0.0062404608      10128.703    0.040052277  0.00025321877 
  348000    15258   0.0064348069      10158.212    0.040055694 -0.00025394851 
  349000    15258   0.0064962017      10187.714     0.04005133  0.00025467824 
  350000    15258   0.0063763813      10217.232      0.0400544 -0.00025540798 
  351000    15258   0.0064698802      10246.747    0.040049914  0.00025613772 
  352000    15258   0.0066081795      10276.438    0.040055577 -0.00025686745 
  353000    15258   0.0066170616      10306.137    0.040049834  0.00025759719 
  354000    15258   0.0066276409      10335.888    0.040056981 -0.00025832693 
  355000    15258   0.0066652317      10365.518    0.040048907  0.00025905667 
  356000    15258   0.0069148003      10395.249    0.040058902  -0.0002597864 
  357000    15258   0.0069532236       10425.11    0.040049209  0.00026051614 
  358000    15258   0.0072720589      10454.749    0.040059103 -0.00026124588 
  359000    15258   0.0071581533      10484.711    0.040048083  0.00026197561 
  360000    15258   0.0071253698      10514.899    0.040054404 -0.00026270535 
  361000    15258   0.0068598578      10544.418    0.040045102  0.00026343509 
  362000    15258   0.0070344856      10574.184    0.040051777 -0.00026416482 
  363000    15258     0.00686307      10603.839    0.040044624  0.00026489456 
  364000    15258   0.0071645206      10633.594    0.040051654  -0.0002656243 
  365000    15258   0.0073150139      10663.281    0.040045058  0.00026635403 
  366000    15258   0.0075402828      10694.462    0.040052393 -0.00026708377 
  367000    15258   0.0076092604      10724.319    0.040044219  0.00026781351 
  368000    15258   0.0074324086      10753.902     0.04005092 -0.00026854324 
  369000    15258   0.0073845172      10783.503    0.040043052  0.00026927298 
  370000    15258   0.0073300661      10813.062    0.040051024 -0.00027000272 
  371000    15258   0.0069572823      10842.579    0.040041727  0.00027073245 
  372000    15258    0.007160331      10872.109    0.040049408 -0.00027146219 
  373000    15258    0.007061387      10901.615    0.040043538  0.00027219193 
  374000    15258   0.0072013469      10931.131    0.040047989 -0.00027292167 
  375000    15258   0.0070569573      10960.651    0.040042163   0.0002736514 
  376000    15258   0.0070727574       10990.29    0.040048134 -0.00027438114 
  377000    15258   0.0072448052       11019.77    0.040042844  0.00027511088 
  378000    15258   0.0073126915      11049.303    0.040047406 -0.00027584061 
  379000    15258   0.0069478649      11078.821    0.040042251  0.00027657035 
  380000    15258   0.0072690651      11108.315      0.0400463 -0.00027730009 
  381000    15258   0.0072197399       11137.83    0.040041811  0.00027802982 
  382000    15258   0.0074653707      11167.381    0.040045165 -0.00027875956 
  383000    15258    0.007262192      11196.882    0.040040145   0.0002794893 
  384000    15258   0.0072550979      11226.567    0.040045211 -0.00028021903 
  385000    15258   0.0069806469      11256.308    0.040039101  0.00028094877 
  386000    15258   0.0074536871      11286.013    0.040042282 -0.00028167851 
  387000    15258   0.0072722006      11315.747    0.040036698  0.00028240824 
  388000    15258   0.0076592097      11345.582    0.040041398 -0.00028313798 
  389000    15258   0.0074412152      11375.543    0.040038182  0.00028386772 
  390000    15258   0.0074087388      11405.206    0.040041843 -0.00028459745 
  391000    15258   0.0070511414      11435.008    0.040038534  0.00028532719 
  392000    15258   0.0072589379      11465.075    0.040040416 -0.00028605693 
  393000    15258   0.0071706874      11494.997    0.040036587  0.00028678666 
  394000    15258   0.0074864418      11524.832    0.040037684  -0.0002875164 
  395000    15258   0.0068947121      11554.531    0.040033267  0.00028824614 
  396000    15258   0.0068991662      11584.266    0.040034308 -0.00028897588 
  397000    15258   0.0064662265      11613.948    0.040032917  0.00028970561 
  398000    15258   0.0065540401      11643.674    0.040032047 -0.00029043535 
  399000    15258   0.0062943609      11673.378    0.040029932  0.00029116509 
  400000    15258   0.0066686683      11703.884    0.040028918 -0.00029189482 
  401000    15258   0.0062015157      11734.209    0.040025813  0.00029262456 
  402000    15258   0.0064353853      11764.575    0.040026944  -0.0002933543 
  403000    15258   0.0060482295      11794.919    0.040025594  0.00029408403 
  404000    15258   0.0065314887      11825.256    0.040025239 -0.00029481377 
  405000    15258    0.005976632      11855.584     0.04002235  0.00029554351 
  406000    15258   0.0063205813      11885.927    0.040022571 -0.00029627324 
  407000    15258   0.0059147238      11916.281    0.040022048  0.00029700298 
  408000    15258    0.006234578      11946.669    0.040021238 -0.00029773272 
  409000    15258   0.0058285953      11977.057    0.040019676  0.00029846245 
  410000    15258   0.0062474634      12007.544    0.040019224 -0.00029919219 
  411000    15258    0.005806721      12037.978    0.040017348  0.00029992193 
  412000    15258   0.0061310969       12068.48    0.040019309 -0.00030065166 
  413000    15258   0.0058918763      12098.897    0.040016953   0.0003013814 
  414000    15258   0.0061474576      12129.341    0.040017033 -0.00030211114 
  415000    15258   0.0057019502      12159.674    0.040015596  0.00030284087 
  416000    15258   0.0059515156      12190.231    0.040014569 -0.00030357061 
  417000    15258   0.0053831208      12220.436    0.040014846  0.00030430035 
  418000    15258   0.0057493971      12250.224    0.040014317 -0.00030503008 
  419000    15258   0.0052740506      12280.032    0.040014506  0.00030575982 
  420000    15258   0.0058788409      12309.835    0.040014663 -0.00030648956 
  421000    15258   0.0051833642      12339.692    0.040013765  0.00030721929 
  422000    15258   0.0057253817       12369.48    0.040013334 -0.00030794903 
  423000    15258   0.0052664707      12399.286    0.040012891  0.00030867877 
  424000    15258   0.0055151945       12429.51    0.040013749  -0.0003094085 
  425000    15258   0.0051529343      12459.675    0.040011344  0.00031013824 
  426000    15258   0.0055005598       12489.39    0.040012327 -0.00031086798 
  427000    15258   0.0052562504      12519.104    0.040010177  0.00031159771 
  428000    15258   0.0053023555      12548.843    0.040010304 -0.00031232745 
  429000    15258   0.0051755778      12578.566    0.040008236  0.00031305719 
  430000    15258   0.0054772193      12608.273    0.040008717 -0.00031378692 
  431000    15258   0.0051552237      12637.993    0.040009285  0.00031451666 
  432000    15258    0.005587555      12667.768    0.040008196  -0.0003152464 
  433000    15258   0.0051708408      12697.537    0.040007585  0.00031597614 
  434000    15258   0.0054629726      12727.405    0.040007582 -0.00031670587 
  435000    15258   0.0051280532      12757.309    0.040006928  0.00031743561 
  436000    15258   0.0054207389       12787.65    0.040006636 -0.00031816535 
  437000    15258    0.004981534      12817.374    0.040006272  0.00031889508 
  438000    15258    0.005390297      12847.077     0.04000577 -0.00031962482 
  439000    15258   0.0050768128      12876.808    0.040005791  0.00032035456 
  440000    15258    0.005178304       12906.62    0.040005904 -0.00032108429 
  441000    15258   0.0049427515       12936.35    0.040006292  0.00032181403 
  442000    15258   0.0054377888      12966.093    0.040003819 -0.00032254377 
  443000    15258   0.0048546983      12995.818    0.040006132   0.0003232735 
  444000    15258   0.0053354561      13025.539    0.040002931 -0.00032400324 
  445000    15258   0.0050656483      13055.258    0.040003944  0.00032473298 
  446000    15258   0.0056648606      13084.976    0.040001201 -0.00032546271 
  447000    15258    0.005349171      13114.731    0.040002027  0.00032619245 
  448000    15258    0.005685698      13144.581    0.040000034 -0.00032692219 
  449000    15258   0.0052929425      13174.524     0.04000009  0.00032765192 
  450000    15258   0.0056791455      13204.397    0.039998668 -0.00032838166 
  451000    15258   0.0052937023      13234.391    0.039999415   0.0003291114 
  452000    15258   0.0055822752      13264.185     0.03999876 -0.00032984113 
  453000    15258   0.0052865008      13294.009    0.039999086  0.00033057087 
  454000    15258   0.0054964973      13323.831    0.039998695 -0.00033130061 
  455000    15258    0.005337305      13353.809    0.039998414  0.00033203034 
  456000    15258   0.0053198653       13384.36    0.039998688 -0.00033276008 
  457000    15258    0.005155634      13414.779    0.039999182  0.00033348982 
  458000    15258   0.0052113731      13444.526    0.039997947 -0.00033421955 
  459000    15258   0.0050632726      13474.294    0.039997805  0.00033494929 
  460000    15258    0.005301954      13504.057    0.039995762 -0.00033567903 
  461000    15258   0.0053479779      13533.815    0.039996087  0.00033640876 
  462000    15258    0.005264696      13563.584    0.039994632  -0.0003371385 
  463000    15258   0.0050289733      13593.378    0.039995438  0.00033786824 
  464000    15258   0.0050826319      13623.182     0.03999322 -0.00033859797 
  465000    15258   0.0050235524      13652.917    0.039991629  0.00033932771 
  466000    15258   0.0051174076       13682.75    0.039992131 -0.00034005745 
  467000    15258   0.0048440494      13712.706    0.039991701  0.00034078718 
  468000    15258   0.0052332379      13742.576    0.039993706 -0.00034151692 
  469000    15258   0.0048921397      13773.059    0.039990918  0.00034224666 
  470000    15258   0.0051804726      13802.951    0.039995104 -0.00034297639 
  471000    15258   0.0051633134      13832.728    0.039990024  0.00034370613 
  472000    15258   0.0050777838      13862.554    0.039996089 -0.00034443587 
  473000    15258   0.0050914969      13892.326    0.039988474   0.0003451656 
  474000    15258   0.0052723817      13922.074    0.039994564 -0.00034589534 
  475000    15258   0.0051719241      13951.899    0.039988262  0.00034662507 
  476000    15258   0.0052233189      13981.781    0.039992883 -0.00034735481 
  477000    15258    0.005035645      14011.738    0.039989175  0.00034808455 
  478000    15258   0.0053050057      14041.654    0.039990233 -0.00034881428 
  479000    15258   0.0048261852      14071.527    0.039989413  0.00034954402 
  480000    15258   0.0053036507      14101.574    0.039990229 -0.00035027376 
  481000    15258   0.0048928741      14131.528     0.03998802  0.00035100349 
  482000    15258   0.0053390174      14161.496    0.039990034 -0.00035173323 
  483000    15258   0.0050401535      14191.392    0.039988496  0.00035246297 
  484000    15258   0.0056187052       14221.24    0.039990952  -0.0003531927 
  485000    15258   0.0053024495       14251.09    0.039987352  0.00035392244 
  486000    15258     0.00556563      14282.641    0.039988951 -0.00035465218 
  487000    15258   0.0051442027        14312.7    0.039986617  0.00035538191 
  488000    15258   0.0056960105      14342.964    0.039987932 -0.00035611165 
  489000    15258    0.005281822      14373.003     0.03998626  0.00035684139 
  490000    15258   0.0055324179       14403.04    0.039988244 -0.00035757112 
  491000    15258   0.0051931572       14432.84    0.039985491  0.00035830086 
  492000    15258   0.0054271394      14462.614    0.039986728  -0.0003590306 
  493000    15258   0.0050325572      14492.346    0.039984543  0.00035976033 
  494000    15258   0.0053180511      14522.115    0.039988218 -0.00036049007 
  495000    15258   0.0048840796      14551.885    0.039983982  0.00036121981 
  496000    15258   0.0052681297      14581.745    0.039986588 -0.00036194954 
  497000    15258   0.0048865362      14611.511    0.039984973  0.00036267928 
  498000    15258   0.0052596624      14641.282    0.039986414 -0.00036340902 
  499000    15258   0.0047614513      14671.045    0.039984507  0.00036413875 
  500000    15258   0.0051522422       14700.83    0.039986667 -0.00036486849 
  501000    15258   0.0050826397      14730.631    0.039984238  0.00036559823 
  502000    15258   0.0055581005      14760.579     0.03998669 -0.00036632796 
  503000    15258   0.0050432847      14790.498    0.039982527   0.0003670577 
  504000    15258   0.0052263645      14821.445    0.039984965 -0.00036778744 
  505000    15258   0.0048461112      14851.095    0.039982421  0.00036851717 
  506000    15258   0.0051804268      14880.769    0.039985481 -0.00036924691 
  507000    15258   0.0048758681      14910.445    0.039983204  0.00036997665 
  508000    15258   0.0053462275      14940.109    0.039984576 -0.00037070638 
  509000    15258    0.004987294      14969.796    0.039982304  0.00037143612 
  510000    15258   0.0053375434      14999.422    0.039983605 -0.00037216585 
  511000    15258    0.005145421      15029.053    0.039981484  0.00037289559 
  512000    15258   0.0056679624       15058.91    0.039985074 -0.00037362533 
  513000    15258   0.0050007901      15088.777    0.039981878  0.00037435506 
  514000    15258   0.0051401296      15118.634    0.039985627  -0.0003750848 
  515000    15258   0.0049812382      15148.373     0.03998184  0.00037581454 
  516000    15258    0.005285268      15178.132    0.039984794 -0.00037654427 
  517000    15258   0.0049011538      15207.987    0.039979659  0.00037727401 
  518000    15258    0.005311256      15237.781     0.03998355 -0.00037800375 
  519000    15258   0.0051671679      15267.522    0.039979484  0.00037873348 
  520000    15258   0.0051875602      15297.409    0.039983744 -0.00037946322 
  521000    15258   0.0051043341      15327.377    0.039979953  0.00038019296 
  522000    15258   0.0052933559      15357.511    0.039984081 -0.00038092269 
  523000    15258      0.0051005      15387.591    0.039978255  0.00038165243 
  524000    15258   0.0051918347      15417.609    0.039980854 -0.00038238217 
  525000    15258   0.0052203425      15447.685    0.039976412   0.0003831119 
  526000    15258    0.005340276      15477.593    0.039981012 -0.00038384164 
  527000    15258   0.0050907597      15507.507     0.03997776  0.00038457138 
  528000    15258    0.005040255      15537.497    0.039981557 -0.00038530111 
  529000    15258   0.0049595358      15567.441    0.039978645  0.00038603085 
  530000    15258   0.0051055785      15597.095    0.039980913 -0.00038676058 
  531000    15258   0.0052571984      15626.803    0.039978177  0.00038749032 
  532000    15258   0.0054278595      15656.496     0.03997911 -0.00038822006 
  533000    15258   0.0051370717      15686.191    0.039978505  0.00038894979 
  534000    15258   0.0051280664      15715.907    0.039978386 -0.00038967953 
  535000    15258   0.0049911464      15745.583    0.039976439  0.00039040927 
  536000    15258   0.0050940406      15775.329    0.039978857   -0.000391139 
  537000    15258    0.005020584      15805.084    0.039976702  0.00039186874 
  538000    15258   0.0051913191      15834.773     0.03997882 -0.00039259848 
  539000    15258   0.0051002932      15864.849    0.039975577  0.00039332821 
  540000    15258    0.005227678      15894.601    0.039977722 -0.00039405795 
  541000    15258   0.0050931294      15924.295    0.039973934  0.00039478769 
  542000    15258   0.0053007513      15953.991    0.039977308 -0.00039551742 
  543000    15258   0.0051089518      15983.681    0.039975246  0.00039624716 
  544000    15258    0.005372173      16013.567    0.039977325  -0.0003969769 
  545000    15258   0.0051239536      16043.458    0.039974835  0.00039770663 
  546000    15258   0.0053173974      16073.336    0.039977676 -0.00039843637 
  547000    15258   0.0051442903      16103.103    0.039973896   0.0003991661 
  548000    15258   0.0053614994      16132.937    0.039976359 -0.00039989584 
  549000    15258   0.0050000383      16162.804    0.039970893  0.00040062558 
  550000    15258   0.0053263495      16192.829    0.039977748 -0.00040135531 
  551000    15258   0.0050698337      16222.759    0.039971618  0.00040208505 
  552000    15258   0.0051931716      16252.763    0.039978059 -0.00040281479 
  553000    15258   0.0048179068      16282.569    0.039970987  0.00040354452 
  554000    15258   0.0050904842      16312.362    0.039974767 -0.00040427426 
  555000    15258   0.0048906681      16342.347    0.039969416    0.000405004 
  556000    15258   0.0052231164      16372.381    0.039975223 -0.00040573373 
  557000    15258   0.0048250567      16402.364    0.039969239  0.00040646347 
  558000    15258   0.0052062583      16432.169    0.039975158  -0.0004071932 
  559000    15258   0.0050157414      16461.872    0.039970181  0.00040792294 
  560000    15258   0.0050219083      16491.647     0.03997474 -0.00040865268 
  561000    15258   0.0048425902      16521.443    0.039969884  0.00040938241 
  562000    15258   0.0050653907      16551.183    0.039974489 -0.00041011215 
  563000    15258    0.004840076      16580.922    0.039969561  0.00041084189 
  564000    15258   0.0050867325      16610.699    0.039973064 -0.00041157162 
  565000    15258   0.0048489198      16640.416    0.039970181  0.00041230136 
  566000    15258    0.005055561      16670.165    0.039972363  -0.0004130311 
  567000    15258   0.0046564449       16699.88    0.039967106  0.00041376083 
  568000    15258   0.0049949011      16729.703    0.039970708 -0.00041449057 
  569000    15258   0.0046404693      16759.518    0.039965712  0.00041522031 
  570000    15258   0.0048742276       16789.28    0.039969397 -0.00041595004 
  571000    15258   0.0044595625      16818.987    0.039964466  0.00041667978 
  572000    15258   0.0047352267      16848.923    0.039968723 -0.00041740951 
  573000    15258   0.0046333561      16879.885    0.039963364  0.00041813925 
  574000    15258   0.0049572142      16909.648    0.039968525 -0.00041886899 
  575000    15258   0.0047151014      16939.402    0.039962372  0.00041959872 
  576000    15258   0.0046524514       16969.34    0.039966342 -0.00042032846 
  577000    15258   0.0044444328      16999.342    0.039959678   0.0004210582 
  578000    15258   0.0046417068      17029.308     0.03996644 -0.00042178793 
  579000    15258   0.0044812821      17059.136    0.039960462  0.00042251767 
  580000    15258   0.0047855923       17089.11    0.039965775  -0.0004232474 
  581000    15258   0.0046457675      17118.948      0.0399594  0.00042397714 
  582000    15258   0.0048372856      17148.774    0.039963922 -0.00042470688 
  583000    15258   0.0045774568        17178.6    0.039957598  0.00042543661 
  584000    15258   0.0048222228       17208.55    0.039960364 -0.00042616635 
  585000    15258    0.004454138      17238.465    0.039956605  0.00042689609 
  586000    15258   0.0047466318      17268.393    0.039958538 -0.00042762582 
  587000    15258   0.0043415321      17298.307    0.039956063  0.00042835556 
  588000    15258   0.0047825725      17328.321    0.039957633  -0.0004290853 
  589000    15258   0.0045010748      17358.509    0.039954774  0.00042981503 
  590000    15258    0.004924054      17388.729    0.039958212 -0.00043054477 
  591000    15258   0.0046367826      17418.819    0.039957072   0.0004312745 
  592000    15258   0.0050474478      17448.722    0.039956486 -0.00043200424 
  593000    15258   0.0045000748       17478.61    0.039955642  0.00043273398 
  594000    15258   0.0049501472      17509.644     0.03995756 -0.00043346371 
  595000    15258   0.0045202931      17539.648    0.039954758  0.00043419345 
  596000    15258   0.0048343167      17569.611     0.03995384 -0.00043492319 
  597000    15258   0.0043997151      17599.869    0.039951414  0.00043565292 
  598000    15258   0.0048348877      17629.723     0.03995401 -0.00043638266 
  599000    15258   0.0047613902      17659.457    0.039951696  0.00043711239 
  600000    15258    0.005141414      17689.216    0.039955267 -0.00043784213 
  601000    15258   0.0047141952       17718.93    0.039952955  0.00043857187 
  602000    15258   0.0049623581      17748.697    0.039954093  -0.0004393016 
  603000    15258   0.0046891287      17778.456    0.039952102  0.00044003134 
  604000    15258   0.0047275174      17808.167    0.039953469 -0.00044076108 
  605000    15258   0.0044563998      17837.888    0.039949415  0.00044149081 
  606000    15258   0.0047513822      17867.623    0.039950081 -0.00044222055 
  607000    15258   0.0044125533       17899.33    0.039947812  0.00044295028 
  608000    15258   0.0047616535      17929.287    0.039949281 -0.00044368002 
  609000    15258   0.0044469282      17959.245    0.039946726  0.00044440976 
  610000    15258   0.0046669209      17989.072    0.039947086 -0.00044513949 
  611000    15258   0.0043096037      18018.895     0.03994623  0.00044586923 
  612000    15258    0.004744209      18048.726    0.039946414 -0.00044659897 
  613000    15258   0.0044912121      18078.522    0.039946277   0.0004473287 
  614000    15258   0.0048235068      18108.407    0.039946254 -0.00044805844 
  615000    15258   0.0045473223      18138.356     0.03994621  0.00044878817 
  616000    15258    0.004747042      18168.464    0.039942442 -0.00044951791 
  617000    15258     0.00447622      18198.485    0.039944737  0.00045024765 
  618000    15258   0.0047777707      18228.334    0.039942375 -0.00045097738 
  619000    15258   0.0044721413      18258.143    0.039945642  0.00045170712 
  620000    15258   0.0048121643          18288    0.039942064 -0.00045243686 
  621000    15258   0.0045445992      18317.849    0.039945314  0.00045316659 
  622000    15258   0.0049728923      18347.869    0.039943538 -0.00045389633 
  623000    15258     0.00475915      18377.882    0.039944072  0.00045462606 
  624000    15258    0.004874793       18407.97    0.039944645  -0.0004553558 
  625000    15258   0.0046413063      18437.772    0.039945176  0.00045608554 
  626000    15258   0.0047039259      18467.505     0.03994503 -0.00045681527 
  627000    15258   0.0045270708      18497.261    0.039944237  0.00045754501 
  628000    15258   0.0048945539      18527.031    0.039943314 -0.00045827475 
  629000    15258   0.0047618724      18556.822    0.039943926  0.00045900448 
  630000    15258   0.0048954089      18586.597    0.039943247 -0.00045973422 
  631000    15258   0.0047060109      18616.373    0.039943073  0.00046046395 
  632000    15258   0.0048845575       18646.13     0.03994223 -0.00046119369 
  633000    15258   0.0044952471      18675.885     0.03994073  0.00046192343 
  634000    15258   0.0048964884      18705.663    0.039941903 -0.00046265316 
  635000    15258   0.0045912563      18735.396    0.039940733   0.0004633829 
  636000    15258   0.0047678566      18765.248    0.039942791 -0.00046411263 
  637000    15258   0.0046150252      18795.231    0.039942104  0.00046484237 
  638000    15258   0.0049942039      18825.156    0.039942472 -0.00046557211 
  639000    15258   0.0046373409       18855.12    0.039943767  0.00046630184 
  640000    15258   0.0047718833      18885.178    0.039943611 -0.00046703158 
  641000    15258   0.0045300288      18915.083    0.039943496  0.00046776132 
  642000    15258   0.0048244544      18945.063    0.039944112 -0.00046849105 
  643000    15258   0.0044148549      18975.045    0.039943866  0.00046922079 
  644000    15258   0.0046675442      19005.001    0.039942877 -0.00046995052 
  645000    15258   0.0043365898      19034.954    0.039942488  0.00047068026 
  646000    15258   0.0046566807      19064.997    0.039943933    -0.00047141 
  647000    15258   0.0042021398      19095.035    0.039944592  0.00047213973 
  648000    15258   0.0044710866      19124.938    0.039943534 -0.00047286947 
  649000    15258   0.0040266293      19154.808    0.039944182   0.0004735992 
  650000    15258   0.0043203684      19184.661    0.039942963 -0.00047432894 
  651000    15258   0.0041225439      19214.696     0.03994427  0.00047505868 
  652000    15258   0.0043615116      19244.929    0.039941007 -0.00047578841 
  653000    15258   0.0038650062      19275.149    0.039943293  0.00047651815 
  654000    15258   0.0041457785      19305.378    0.039939755 -0.00047724788 
  655000    15258   0.0039665443      19335.703    0.039942052  0.00047797762 
  656000    15258   0.0043692657      19366.386    0.039940498 -0.00047870736 
  657000    15258    0.003973415      19396.881    0.039942019  0.00047943709 
  658000    15258   0.0042739759      19427.212    0.039939271 -0.00048016683 
  659000    15258   0.0039718393      19457.443    0.039939996  0.00048089657 
  660000    15258   0.0042687108      19487.846    0.039937834  -0.0004816263 
  661000    15258   0.0037800688      19518.102    0.039938049  0.00048235604 
  662000    15258   0.0044350647      19548.394    0.039935372 -0.00048308577 
  663000    15258   0.0039464692      19578.679     0.03993729  0.00048381551 
  664000    15258   0.0042315752      19609.047    0.039934842 -0.00048454525 
  665000    15258   0.0041542718      19639.392    0.039937815  0.00048527498 
  666000    15258   0.0046463898      19669.823    0.039935379 -0.00048600472 
  667000    15258   0.0042107056      19700.212    0.039934671  0.00048673445 
  668000    15258   0.0045463783      19730.669    0.039932783 -0.00048746419 
  669000    15258   0.0040764354       19761.11    0.039933925  0.00048819393 
  670000    15258   0.0047038046      19791.395    0.039931213 -0.00048892366 
  671000    15258   0.0042665018      19821.694    0.039932128   0.0004896534 
  672000    15258   0.0046410991      19852.326    0.039930887 -0.00049038313 
  673000    15258   0.0042838145      19882.272    0.039932382  0.00049111287 
  674000    15258   0.0047938805      19912.214    0.039931723 -0.00049184261 
  675000    15258   0.0044808431      19942.064    0.039934034  0.00049257234 
  676000    15258   0.0047729498      19971.935    0.039931101 -0.00049330208 
  677000    15258   0.0045543766      20001.932    0.039934825  0.00049403181 
  678000    15258   0.0050678289      20031.822     0.03993075 -0.00049476155 
  679000    15258   0.0046987553      20061.632    0.039934245  0.00049549129 
  680000    15258   0.0052134921      20091.515    0.039930863 -0.00049622102 
  681000    15258   0.0047773745      20121.482    0.039935354  0.00049695076 
  682000    15258   0.0052552707      20151.373    0.039931111 -0.00049768049 
  683000    15258   0.0047786288      20181.233    0.039933315  0.00049841023 
  684000    15258   0.0052146197      20211.076    0.039930008 -0.00049913997 
  685000    15258   0.0048109434      20240.892    0.039930665   0.0004998697 
  686000    15258   0.0052631011      20270.715    0.039930408 -0.00050059944 
  687000    15258   0.0048030181      20300.549    0.039930516  0.00050132917 
  688000    15258   0.0052152069      20330.734    0.039930576 -0.00050205891 
  689000    15258   0.0047666202       20361.02    0.039930226  0.00050278865 
  690000    15258   0.0051129321      20390.917    0.039930093 -0.00050351838 
  691000    15258   0.0048423185      20420.823    0.039930425  0.00050424812 
  692000    15258   0.0051929047      20450.826    0.039929695 -0.00050497785 
  693000    15258   0.0046600913      20480.681    0.039929484  0.00050570759 
  694000    15258   0.0051559686      20510.514    0.039928847 -0.00050643733 
  695000    15258   0.0047150444      20540.255    0.039926132  0.00050716706 
  696000    15258    0.005206021      20570.102    0.039929936  -0.0005078968 
  697000    15258   0.0048026961      20600.163    0.039925727  0.00050862653 
  698000    15258    0.005079172      20630.171    0.039929652 -0.00050935627 
  699000    15258   0.0046593044      20660.017    0.039927149  0.00051008601 
  700000    15258   0.0049304079      20689.924    0.039929152 -0.00051081574 
  701000    15258   0.0045832433      20719.794    0.039927141  0.00051154548 
  702000    15258   0.0049016686      20749.651    0.039929396 -0.00051227521 
  703000    15258   0.0046781541      20779.557    0.039930705  0.00051300495 
  704000    15258   0.0051002758      20809.563    0.039930065 -0.00051373469 
  705000    15258   0.0046874362      20839.616    0.039929139  0.00051446442 
  706000    15258   0.0050027651      20869.614    0.039927899 -0.00051519416 
  707000    15258   0.0046124517      20899.569    0.039928554  0.00051592389 
  708000    15258   0.0050419364      20929.544    0.039927987 -0.00051665363 
  709000    15258   0.0047393413      20959.496    0.039926061  0.00051738336 
  710000    15258   0.0049148048      20989.448    0.039924998  -0.0005181131 
  711000    15258   0.0044986236      21019.404    0.039925209  0.00051884284 
  712000    15258   0.0049009843      21049.402    0.039923284 -0.00051957257 
  713000    15258   0.0044447602      21079.347    0.039924901  0.00052030231 
  714000    15258   0.0045489373      21109.439    0.039926276 -0.00052103204 
  715000    15258   0.0043672038      21139.589    0.039925695  0.00052176178 
  716000    15258   0.0047090226      21169.696    0.039926189 -0.00052249152 
  717000    15258    0.004290838      21200.004    0.039926297  0.00052322125 
  718000    15258   0.0048034614      21230.117    0.039924113 -0.00052395099 
  719000    15258   0.0044845337      21260.156      0.0399242  0.00052468072 
  720000    15258   0.0048156437      21290.438    0.039922574 -0.00052541046 
  721000    15258   0.0044438516      21321.861    0.039923693   0.0005261402 
  722000    15258   0.0046827016      21351.769    0.039922485 -0.00052686993 
  723000    15258   0.0044742281        21381.7    0.039924596  0.00052759967 
  724000    15258    0.004749206      21411.638    0.039921018  -0.0005283294 
  725000    15258   0.0045137312      21441.656    0.039925741  0.00052905914 
  726000    15258   0.0047688409      21471.593    0.039920902 -0.00052978887 
  727000    15258   0.0043680699      21503.382    0.039926594  0.00053051861 
  728000    15258   0.0048693202      21533.352    0.039920899 -0.00053124835 
  729000    15258   0.0046262497      21563.253    0.039924685  0.00053197808 
  730000    15258   0.0050278958      21593.156    0.039921025 -0.00053270782 
  731000    15258   0.0046835785      21623.071    0.039923992  0.00053343755 
  732000    15258   0.0049287895          21653    0.039919614 -0.00053416729 
  733000    15258   0.0045724388      21682.916    0.039923075  0.00053489703 
  734000    15258   0.0049057956      21712.801    0.039918263 -0.00053562676 
  735000    15258    0.004496511      21742.693    0.039924272   0.0005363565 
  736000    15258   0.0048357165      21772.978    0.039917733 -0.00053708623 
  737000    15258   0.0045967406      21803.036    0.039923901  0.00053781597 
  738000    15258   0.0049507238      21833.025    0.039917729  -0.0005385457 
  739000    15258   0.0045987915      21863.056    0.039924083  0.00053927544 
  740000    15258   0.0050924729      21893.217    0.039916846 -0.00054000518 
  741000    15258   0.0047909612      21923.278    0.039922909  0.00054073491 
  742000    15258   0.0051484167      21953.351    0.039919114 -0.00054146465 
  743000    15258   0.0050266499      21983.391    0.039923355  0.00054219438 
  744000    15258   0.0052468109      22013.457    0.039919455 -0.00054292412 
  745000    15258   0.0048595628      22043.509    0.039923703  0.00054365385 
  746000    15258   0.0052624829      22073.574    0.039919102 -0.00054438359 
  747000    15258   0.0046912183      22103.571    0.039922264  0.00054511333 
  748000    15258   0.0050389386      22133.554    0.039918337 -0.00054584306 
  749000    15258   0.0046309862      22163.657    0.039921311   0.0005465728 
  750000    15258   0.0050789341      22193.621    0.039916604 -0.00054730253 
  751000    15258   0.0045777601      22223.758    0.039918648  0.00054803227 
  752000    15258   0.0049037412      22253.989    0.039915016 -0.00054876201 
  753000    15258   0.0046021486      22284.081    0.039918166  0.00054949174 
  754000    15258   0.0049394816      22314.172    0.039914575 -0.00055022148 
  755000    15258     0.00441422      22344.048    0.039918603  0.00055095121 
  756000    15258   0.0049493863       22373.93    0.039917431 -0.00055168095 
  757000    15258   0.0043678618      22403.849    0.039918362  0.00055241068 
  758000    15258   0.0051163028      22433.749    0.039916656 -0.00055314042 
  759000    15258   0.0045369872      22463.635    0.039917397  0.00055387016 
  760000    15258   0.0050912487      22493.572    0.039915634 -0.00055459989 
  761000    15258   0.0046983292       22523.44    0.039916653  0.00055532963 
  762000    15258   0.0050429676      22553.331    0.039914726 -0.00055605936 
  763000    15258   0.0048040991       22583.07    0.039915569   0.0005567891 
  764000    15258   0.0053855621      22612.826    0.039914084 -0.00055751883 
  765000    15258   0.0049670402      22642.587    0.039915557  0.00055824857 
  766000    15258   0.0052692762      22672.399    0.039913824  -0.0005589783 
  767000    15258   0.0048675145      22702.284    0.039916452  0.00055970804 
  768000    15258   0.0053095425      22732.286    0.039911863 -0.00056043778 
  769000    15258   0.0049203532      22762.255    0.039915828  0.00056116751 
  770000    15258   0.0053274967       22792.24    0.039914137 -0.00056189725 
  771000    15258   0.0050096397      22822.277    0.039917376  0.00056262698 
  772000    15258   0.0055422615       22852.28    0.039915029 -0.00056335672 
  773000    15258   0.0050873377      22882.161    0.039919574  0.00056408645 
  774000    15258   0.0054898315      22912.032     0.03991702 -0.00056481619 
  775000    15258    0.004858873      22941.904    0.039920829  0.00056554593 
  776000    15258   0.0053248276      22971.833    0.039915938 -0.00056627566 
  777000    15258   0.0049779479      23001.788    0.039920383   0.0005670054 
  778000    15258   0.0052801647      23031.693    0.039915251 -0.00056773513 
  779000    15258   0.0046537917      23061.533    0.039920488  0.00056846487 
  780000    15258   0.0048639507      23091.436    0.039915165  -0.0005691946 
  781000    15258   0.0046366931      23121.587    0.039919776  0.00056992434 
  782000    15258   0.0050689957      23151.513    0.039916137 -0.00057065408 
  783000    15258   0.0048040778      23181.402    0.039918783  0.00057138381 
  784000    15258   0.0051659453      23211.341    0.039914799 -0.00057211355 
  785000    15258   0.0048227288      23241.402    0.039918648  0.00057284328 
  786000    15258   0.0051972224      23271.565    0.039912902 -0.00057357302 
  787000    15258   0.0049904958      23301.664    0.039915956  0.00057430275 
  788000    15258   0.0052816136      23331.686    0.039911264 -0.00057503249 
  789000    15258   0.0050119813      23361.586    0.039915727  0.00057576222 
  790000    15258   0.0052686113       23391.42    0.039911703 -0.00057649196 
  791000    15258   0.0048248976      23421.445    0.039914076   0.0005772217 
  792000    15258   0.0051490154      23451.813    0.039910873 -0.00057795143 
  793000    15258   0.0049091108      23482.147    0.039914204  0.00057868117 
  794000    15258     0.00537638      23512.198    0.039908551  -0.0005794109 
  795000    15258   0.0050942912      23542.192    0.039913618  0.00058014064 
  796000    15258   0.0055177678      23572.184    0.039909097 -0.00058087037 
  797000    15258   0.0052017942      23602.178    0.039914412  0.00058160011 
  798000    15258   0.0055853161      23632.172    0.039907949 -0.00058232984 
  799000    15258   0.0053534641      23662.115    0.039913226  0.00058305958 
  800000    15258    0.006060623      23692.173    0.039907873 -0.00058378932 
  801000    15258   0.0053790802      23722.134      0.0399129  0.00058451905 
  802000    15258   0.0057797045      23752.013    0.039906401 -0.00058524879 
  803000    15258   0.0053942731        23781.9    0.039911886  0.00058597852 
  804000    15258   0.0058001297      23811.781    0.039905119 -0.00058670826 
  805000    15258   0.0055198187      23841.652     0.03991147  0.00058743799 
  806000    15258   0.0059133186      23871.577    0.039905887 -0.00058816773 
  807000    15258   0.0057425817      23901.448    0.039909648  0.00058889746 
  808000    15258   0.0059294352      23931.438    0.039905225  -0.0005896272 
  809000    15258   0.0055330654       23962.04    0.039908813  0.00059035694 
  810000    15258    0.005849455      23992.399    0.039901735 -0.00059108667 
  811000    15258   0.0054560407      24022.688    0.039907974  0.00059181641 
  812000    15258   0.0057973109      24053.249    0.039900662 -0.00059254614 
  813000    15258   0.0053589463      24084.091    0.039905664  0.00059327588 
  814000    15258   0.0055757078      24114.211    0.039898824 -0.00059400561 
  815000    15258   0.0050626195      24144.419    0.039905089  0.00059473535 
  816000    15258   0.0053901275      24174.551    0.039899611 -0.00059546508 
  817000    15258   0.0051221529      24204.694    0.039906225  0.00059619482 
  818000    15258   0.0053712694      24234.957    0.039900502 -0.00059692456 
  819000    15258   0.0049120343      24265.206    0.039905539  0.00059765429 
  820000    15258   0.0053435947      24295.917    0.039899148 -0.00059838403 
  821000    15258   0.0048804393      24325.836    0.039906645  0.00059911376 
  822000    15258    0.005262131      24355.709    0.039897733  -0.0005998435 
  823000    15258   0.0049559165      24385.585    0.039907177  0.00060057323 
  824000    15258   0.0052486365      24415.691    0.039899326 -0.00060130297 
  825000    15258   0.0049685973      24445.762     0.03990619   0.0006020327 
  826000    15258   0.0054158401      24475.847    0.039900713 -0.00060276244 
  827000    15258   0.0050233191      24505.857    0.039906379  0.00060349217 
  828000    15258   0.0053288401       24536.15    0.039898907 -0.00060422191 
  829000    15258   0.0050875645      24566.367    0.039906161  0.00060495165 
  830000    15258   0.0052552567      24596.546    0.039901116 -0.00060568138 
  831000    15258   0.0049168587      24626.877    0.039906409  0.00060641112 
  832000    15258   0.0053812427      24657.113     0.03989922 -0.00060714085 
  833000    15258   0.0052023856      24687.303    0.039905459  0.00060787059 
  834000    15258   0.0056529578      24717.423    0.039900549 -0.00060860032 
  835000    15258   0.0053118792      24747.496    0.039906695  0.00060933006 
  836000    15258   0.0058526749      24777.585    0.039900119 -0.00061005979 
  837000    15258   0.0055485019      24807.758    0.039904881  0.00061078953 
  838000    15258   0.0061827993      24837.874    0.039900685 -0.00061151926 
  839000    15258   0.0056209798      24867.934    0.039904813    0.000612249 
  840000    15258   0.0058200124      24898.032    0.039899251 -0.00061297873 
  841000    15258   0.0053664865      24929.945     0.03990402  0.00061370847 
  842000    15258   0.0058076389      24960.001    0.039899889 -0.00061443821 
  843000    15258   0.0053392599      24990.055    0.039905055  0.00061516794 
  844000    15258   0.0056261992      25020.088    0.039898869 -0.00061589768 
  845000    15258   0.0050848284      25050.084    0.039903919  0.00061662741 
  846000    15258    0.005484958      25081.927    0.039897503 -0.00061735715 
  847000    15258   0.0049815392      25112.426    0.039903427  0.00061808688 
  848000    15258   0.0054558152      25142.915    0.039897811 -0.00061881662 
  849000    15258   0.0052177186      25173.496    0.039904407  0.00061954635 
  850000    15258    0.005494865      25204.026    0.039899128 -0.00062027609 
  851000    15258   0.0052667476      25234.687    0.039903071  0.00062100582 
  852000    15258   0.0054177477      25265.476    0.039899779 -0.00062173556 
  853000    15258   0.0050825585       25296.16    0.039902642  0.00062246529 
  854000    15258   0.0054437938       25326.57    0.039898099 -0.00062319503 
  855000    15258   0.0050115283      25356.998    0.039902125  0.00062392476 
  856000    15258   0.0053510739      25387.545    0.039897568  -0.0006246545 
  857000    15258   0.0050433642      25417.932    0.039903554  0.00062538424 
  858000    15258   0.0052570664      25448.309     0.03989855 -0.00062611397 
  859000    15258   0.0049531091      25478.663    0.039902447  0.00062684371 
  860000    15258   0.0051980213      25509.057    0.039897324 -0.00062757344 
  861000    15258   0.0047390091      25539.549    0.039902276  0.00062830318 
  862000    15258   0.0049300834      25570.165     0.03989792 -0.00062903291 
  863000    15258   0.0045664862      25600.655      0.0399017  0.00062976265 
  864000    15258   0.0049424098      25631.774    0.039896646 -0.00063049238 
  865000    15258   0.0045342061      25662.207    0.039900977  0.00063122212 
  866000    15258   0.0048743892      25692.295    0.039896614 -0.00063195185 
  867000    15258   0.0044793644      25722.413    0.039899624  0.00063268159 
  868000    15258   0.0048033965      25752.475    0.039893701 -0.00063341132 
  869000    15258   0.0045968826      25782.524    0.039896862  0.00063414106 
  870000    15258   0.0047516662      25812.566     0.03989245 -0.00063487079 
  871000    15258   0.0044305101      25842.751    0.039896343  0.00063560053 
  872000    15258   0.0046628691      25872.899    0.039890642 -0.00063633026 
  873000    15258   0.0043342575      25902.969    0.039895401     0.00063706 
  874000    15258   0.0047020863      25932.998    0.039888693 -0.00063778973 
  875000    15258   0.0044109704      25963.062    0.039893033  0.00063851947 
  876000    15258   0.0045649084      25993.211    0.039887618 -0.00063924921 
  877000    15258   0.0042309294      26023.219    0.039891797  0.00063997894 
  878000    15258    0.004578424      26053.241    0.039885573 -0.00064070868 
  879000    15258   0.0041781431      26083.278    0.039890674  0.00064143841 
  880000    15258   0.0045265485      26113.346    0.039886889 -0.00064216815 
  881000    15258   0.0042791024      26143.372    0.039889674  0.00064289788 
  882000    15258   0.0044917638      26173.445    0.039884706 -0.00064362762 
  883000    15258   0.0040407499      26203.498    0.039889978  0.00064435735 
  884000    15258   0.0045382285      26233.663    0.039884577 -0.00064508709 
  885000    15258   0.0042721491      26263.913    0.039891242  0.00064581682 
  886000    15258   0.0045298122      26294.109    0.039884406 -0.00064654656 
  887000    15258   0.0043497901       26324.21    0.039892269  0.00064727629 
  888000    15258   0.0045053937      26354.588    0.039884805 -0.00064800603 
  889000    15258   0.0042841375      26384.537    0.039891038  0.00064873576 
  890000    15258   0.0046153466      26414.502    0.039883496  -0.0006494655 
  891000    15258   0.0042482541      26444.461    0.039889827  0.00065019523 
  892000    15258    0.004597806      26474.423    0.039882057 -0.00065092497 
  893000    15258   0.0042538373      26504.519    0.039889532   0.0006516547 
  894000    15258    0.004517515      26534.632    0.039882711 -0.00065238444 
  895000    15258     0.00419594      26564.603    0.039890287  0.00065311417 
  896000    15258   0.0045703025      26594.772    0.039882247 -0.00065384391 
  897000    15258   0.0044986691      26624.913    0.039890315  0.00065457364 
  898000    15258   0.0047109358      26655.084    0.039880618 -0.00065530338 
  899000    15258   0.0044759625      26685.169    0.039889782  0.00065603311 
  900000    15258   0.0046432144      26715.266     0.03988083 -0.00065676285 
  901000    15258   0.0043673986      26745.321    0.039889317  0.00065749258 
  902000    15258   0.0047062703      26775.556    0.039878151 -0.00065822232 
  903000    15258   0.0043503707      26805.849    0.039887414  0.00065895205 
  904000    15258   0.0045827941      26836.003    0.039877313 -0.00065968179 
  905000    15258   0.0045008751      26866.096    0.039888443  0.00066041152 
  906000    15258   0.0047602182      26896.174    0.039878163 -0.00066114126 
  907000    15258   0.0045600328      26926.274    0.039887372    0.000661871 
  908000    15258   0.0048142328      26956.434    0.039877188 -0.00066260073 
  909000    15258   0.0044627757      26986.593    0.039885273  0.00066333047 
  910000    15258   0.0048056343       27016.78    0.039877401  -0.0006640602 
  911000    15258   0.0045268449      27046.931    0.039883601  0.00066478994 
  912000    15258   0.0048175536      27077.129    0.039876984 -0.00066551967 
  913000    15258   0.0045406431      27107.124    0.039882525  0.00066624941 
  914000    15258    0.004889762        27137.1    0.039876837 -0.00066697914 
  915000    15258   0.0044665199      27167.085      0.0398829  0.00066770888 
  916000    15258    0.004754129      27197.164    0.039876573 -0.00066843861 
  917000    15258    0.004394423      27227.241    0.039882681  0.00066916835 
  918000    15258   0.0047826677      27257.566     0.03987759 -0.00066989808 
  919000    15258   0.0043210135      27287.743    0.039882723  0.00067062782 
  920000    15258   0.0047098024      27317.883    0.039877925 -0.00067135755 
  921000    15258   0.0044165593      27347.903     0.03988159  0.00067208729 
  922000    15258   0.0043144418       27377.99    0.039876125 -0.00067281702 
  923000    15258    0.004003052      27408.027    0.039878108  0.00067354676 
  924000    15258   0.0041104516      27438.032    0.039875962 -0.00067427649 
  925000    15258   0.0038199499      27468.032    0.039879126  0.00067500623 
  926000    15258   0.0041853909      27498.063    0.039877706 -0.00067573596 
  927000    15258   0.0040809665      27528.125     0.03988061   0.0006764657 
  928000    15258   0.0043916104       27558.31    0.039876857 -0.00067719543 
  929000    15258   0.0041812742      27588.413    0.039880162  0.00067792517 
  930000    15258   0.0043302214      27618.528    0.039876229  -0.0006786549 
  931000    15258   0.0039394004      27648.821    0.039879848  0.00067938464 
  932000    15258   0.0041267736      27678.935    0.039875695 -0.00068011437 
  933000    15258    0.004049919      27709.098     0.03987892  0.00068084411 
  934000    15258   0.0043211144      27739.307     0.03987503 -0.00068157384 
  935000    15258   0.0042800027      27769.472    0.039880651  0.00068230358 
  936000    15258   0.0041946908      27799.803    0.039876795 -0.00068303331 
  937000    15258   0.0040384294      27829.939    0.039880167  0.00068376305 
  938000    15258     0.00416916      27860.109    0.039875229 -0.00068449278 
[...]
 1372000    15258   0.0042302817       40993.21    0.039798311  -0.0010011972 
 1373000    15258   0.0039475793      41023.194    0.039795583   0.0010019269 
 1374000    15258   0.0041494978      41053.198    0.039796386  -0.0010026567 
 1375000    15258   0.0038413654      41083.336    0.039795323   0.0010033864 
 1376000    15258   0.0039855581       41113.52    0.039796061  -0.0010041161 
 1377000    15258   0.0036609638      41143.673    0.039794019   0.0010048459 
 1378000    15258   0.0038588335      41173.892    0.039796513  -0.0010055756 
 1379000    15258   0.0036985567      41204.255    0.039793143   0.0010063053 
 1380000    15258   0.0037980855      41234.541    0.039795865  -0.0010070351 
 1381000    15258   0.0034326682      41264.828    0.039792081   0.0010077648 
 1382000    15258   0.0038361161      41294.844    0.039795197  -0.0010084945 
 1383000    15258   0.0035957894       41324.91    0.039790781   0.0010092243 
 1384000    15258   0.0037852784      41355.037    0.039796175   -0.001009954 
 1385000    15258   0.0036241573      41385.388    0.039790354   0.0010106837 
 1386000    15258   0.0037896845      41415.502    0.039795217  -0.0010114135 
 1387000    15258   0.0035348548      41445.626    0.039789526   0.0010121432 
 1388000    15258   0.0038619243      41475.761    0.039794033  -0.0010128729 
 1389000    15258   0.0035143086      41505.957    0.039788475   0.0010136027 
 1390000    15258   0.0038147436      41536.147     0.03979394  -0.0010143324 
 1391000    15258   0.0035316035      41566.421    0.039787708   0.0010150621 
 1392000    15258    0.003976171      41596.834    0.039794308  -0.0010157919 
 1393000    15258   0.0035904746      41626.957    0.039786552   0.0010165216 
 1394000    15258   0.0038363449      41657.073    0.039792558  -0.0010172513 
 1395000    15258   0.0036072654      41687.308    0.039787659   0.0010179811 
 1396000    15258   0.0038912669      41717.487    0.039792303  -0.0010187108 
 1397000    15258    0.003603996      41747.631    0.039787366   0.0010194405 
 1398000    15258   0.0038897914      41777.879    0.039791511  -0.0010201703 
 1399000    15258   0.0037642227      41808.003    0.039787946      0.0010209 
 1400000    15258   0.0040179243      41838.166    0.039790864  -0.0010216297 
 1401000    15258   0.0037402426      41868.387    0.039787456   0.0010223595 
 1402000    15258   0.0040498661      41898.569    0.039789144  -0.0010230892 
 1403000    15258   0.0036780045       41928.75    0.039785519   0.0010238189 
 1404000    15258   0.0040038617      41958.886    0.039790187  -0.0010245486 
 1405000    15258   0.0037477878      41989.023    0.039786659   0.0010252784 
 1406000    15258   0.0040312306      42019.138    0.039791691  -0.0010260081 
 1407000    15258   0.0037215217      42049.425     0.03978588   0.0010267378 
 1408000    15258   0.0040637233      42079.706    0.039790813  -0.0010274676 
 1409000    15258   0.0038439661      42110.009    0.039787161   0.0010281973 
 1410000    15258   0.0042783574      42140.221    0.039788177   -0.001028927 
 1411000    15258   0.0040587846      42170.418    0.039787139   0.0010296568 
 1412000    15258   0.0044426576      42200.852    0.039789294  -0.0010303865 
 1413000    15258   0.0040424515      42231.261    0.039786421   0.0010311162 
 1414000    15258   0.0043693905      42261.626    0.039788116   -0.001031846 
 1415000    15258   0.0039466748      42291.869    0.039786003   0.0010325757 
 1416000    15258   0.0043269032      42322.144    0.039787578  -0.0010333054 
 1417000    15258   0.0040356248      42352.356    0.039785774   0.0010340352 
 1418000    15258   0.0042415894      42382.532    0.039788752  -0.0010347649 
 1419000    15258   0.0039439517      42412.635    0.039787403   0.0010354946 
 1420000    15258   0.0044393231      42442.807    0.039790268  -0.0010362244 
 1421000    15258   0.0040827036      42472.974     0.03978517   0.0010369541 
 1422000    15258   0.0041811034      42503.154    0.039788939  -0.0010376838 
 1423000    15258    0.003888105      42533.342     0.03978527   0.0010384136 
 1424000    15258   0.0041242353      42563.784    0.039791075  -0.0010391433 
 1425000    15258   0.0040499715      42593.763    0.039787084    0.001039873 
 1426000    15258   0.0041109566      42624.113     0.03978981  -0.0010406028 
 1427000    15258   0.0040166194      42654.359     0.03978682   0.0010413325 
 1428000    15258   0.0042868269      42684.373     0.03979136  -0.0010420622 
 1429000    15258   0.0041760876      42714.363     0.03978612   0.0010427919 
 1430000    15258    0.004373265      42744.399    0.039789794  -0.0010435217 
 1431000    15258   0.0040206861      42774.375     0.03978558   0.0010442514 
 1432000    15258   0.0041748469      42804.553    0.039788856  -0.0010449811 
 1433000    15258   0.0039810997      42834.628    0.039785295   0.0010457109 
 1434000    15258   0.0042770083      42864.743    0.039790332  -0.0010464406 
 1435000    15258   0.0039701689      42894.842     0.03978474   0.0010471703 
 1436000    15258   0.0044478393      42924.946    0.039789887  -0.0010479001 
 1437000    15258   0.0039742771      42955.154    0.039784265   0.0010486298 
 1438000    15258   0.0042978113      42985.422    0.039789247  -0.0010493595 
 1439000    15258   0.0040542496      43015.631    0.039785595   0.0010500893 
 1440000    15258    0.004428337      43046.546    0.039790381   -0.001050819 
 1441000    15258   0.0041490679      43077.149      0.0397873   0.0010515487 
 1442000    15258   0.0043596607      43109.216    0.039789692  -0.0010522785 
 1443000    15258   0.0040497357       43139.49    0.039787507   0.0010530082 
 1444000    15258    0.004428145      43169.708    0.039789171  -0.0010537379 
 1445000    15258   0.0041309264      43199.924    0.039789092   0.0010544677 
 1446000    15258     0.00454378      43230.223    0.039787971  -0.0010551974 
 1447000    15258   0.0042213858      43260.586    0.039787936   0.0010559271 
 1448000    15258   0.0044731394      43290.765    0.039786515  -0.0010566569 
 1449000    15258   0.0041926549      43320.762     0.03978683   0.0010573866 
 1450000    15258   0.0044977413      43350.745    0.039785087  -0.0010581163 
 1451000    15258   0.0041028069      43380.815    0.039787351   0.0010588461 
 1452000    15258   0.0043688609      43410.809    0.039783768  -0.0010595758 
 1453000    15258   0.0041233809       43440.82    0.039785431   0.0010603055 
 1454000    15258   0.0044097164        43470.8    0.039783173  -0.0010610352 
 1455000    15258   0.0040067123      43500.803    0.039784154    0.001061765 
 1456000    15258   0.0043440072      43530.853    0.039783704  -0.0010624947 
 1457000    15258    0.004119652      43560.884    0.039784702   0.0010632244 
 1458000    15258   0.0044296031      43590.939    0.039781741  -0.0010639542 
 1459000    15258   0.0040403333      43620.946    0.039783377   0.0010646839 
 1460000    15258   0.0043708792      43650.928    0.039781465  -0.0010654136 
 1461000    15258   0.0039393878      43681.072    0.039783173   0.0010661434 
 1462000    15258   0.0041956784       43711.66    0.039779478  -0.0010668731 
 1463000    15258   0.0038209803      43741.677     0.03978258   0.0010676028 
 1464000    15258     0.00414706      43771.762    0.039778709  -0.0010683326 
 1465000    15258   0.0037275643      43801.793      0.0397822   0.0010690623 
 1466000    15258   0.0039801131      43831.797    0.039777913   -0.001069792 
 1467000    15258    0.003602009      43861.804    0.039783226   0.0010705218 
 1468000    15258   0.0040039823      43891.836    0.039777425  -0.0010712515 
 1469000    15258   0.0036058387      43921.838    0.039784256   0.0010719812 
 1470000    15258   0.0039124354       43951.87    0.039779165   -0.001072711 
 1471000    15258   0.0034580724      43981.987    0.039782754   0.0010734407 
 1472000    15258   0.0039328598      44012.988     0.03978002  -0.0010741704 
 1473000    15258   0.0035873242      44043.907    0.039781605   0.0010749001 
 1474000    15258   0.0039227392      44074.136    0.039779232  -0.0010756299 
 1475000    15258    0.003599804      44104.369    0.039782801   0.0010763596 
 1476000    15258   0.0039473427      44134.594    0.039779311  -0.0010770893 
 1477000    15258   0.0036449653      44164.939    0.039782307   0.0010778191 
 1478000    15258   0.0038551095      44195.448    0.039780051  -0.0010785488 
 1479000    15258   0.0036293632      44225.846    0.039780465   0.0010792785 
 1480000    15258   0.0038349233      44256.192    0.039779061  -0.0010800083 
 1481000    15258   0.0035208108      44286.199    0.039780896    0.001080738 
 1482000    15258   0.0039658641      44316.287    0.039779304  -0.0010814677 
 1483000    15258   0.0036585071      44346.404    0.039780022   0.0010821975 
 1484000    15258   0.0039505233      44376.562    0.039778511  -0.0010829272 
 1485000    15258   0.0036551914      44406.685    0.039779266   0.0010836569 
 1486000    15258   0.0042071357      44436.839    0.039779816  -0.0010843867 
 1487000    15258   0.0038315546       44467.14    0.039779397   0.0010851164 
 1488000    15258   0.0042514773      44497.188    0.039781322  -0.0010858461 
 1489000    15258   0.0038896564      44527.184    0.039780142   0.0010865759 
 1490000    15258   0.0041192756      44557.179    0.039780733  -0.0010873056 
 1491000    15258   0.0037447254       44587.28    0.039780418   0.0010880353 
 1492000    15258   0.0041901861      44617.291    0.039781186   -0.001088765 
 1493000    15258   0.0038120018      44647.328    0.039781032   0.0010894948 
 1494000    15258   0.0041971124      44677.388    0.039782892  -0.0010902245 
 1495000    15258   0.0039565305      44707.416    0.039782182   0.0010909542 
 1496000    15258   0.0041560518       44737.45    0.039783202   -0.001091684 
 1497000    15258   0.0039764164      44767.439     0.03978165   0.0010924137 
 1498000    15258    0.004149057      44797.477    0.039783119  -0.0010931434 
 1499000    15258   0.0039390766      44827.518    0.039779824   0.0010938732 
 1500000    15258   0.0040127549      44857.552    0.039780432  -0.0010946029 
Loop time of 44857.6 on 6 procs for 1499999 steps with 15258 atoms, finish time Sat Oct 10 07:48:23 2020


Pair  time (%) = 20190.3 (45.0098)
Neigh time (%) = 3.37842 (0.00753144)
Comm  time (%) = 378.593 (0.843989)
Outpt time (%) = 42.5834 (0.0949303)
Other time (%) = 24242.7 (54.0438)

Nlocal:    2543 ave 5280 max 0 min
Histogram: 3 0 0 0 0 0 0 0 0 3
Nghost:    5157.67 ave 11314 max 0 min
Histogram: 3 0 0 0 0 0 0 0 2 1
Neighs:    726274 ave 1.51759e+06 max 0 min
Histogram: 3 0 0 0 0 0 0 0 0 3

Total # of neighbors = 4357642
Ave neighs/atom = 285.597
Neighbor list builds = 93
Dangerous builds = 0

unfix		holder
unfix		zwal3
fix             zwal1 all wall/gran model hertz tangential history primitive type 2 zplane 0.
fix		holder all wall/gran model hertz tangential history mesh n_meshes 1 meshes zwal2
delete_atoms	region lreg
Deleted 4000 atoms, new total = 11258
delete_atoms	region rreg
Deleted 2684 atoms, new total = 8574

run		${relaxts}
run		100000
Setting up run at Sat Oct 10 07:48:23 2020

Memory usage per processor = 70.9248 Mbytes
    Step    Atoms         KinEng            CPU       centerOM           mvel 
 1500000     8574  0.00055952209              0    0.022086866  -0.0010946029 
 1501000     8574    0.010495978      15.725488    0.022402536   0.0010953326 
 1502000     8574   0.0012804124      31.518575    0.022446013  -0.0010960624 
 1503000     8574  0.00027931553      47.377206    0.022416701   0.0010967921 
 1504000     8574  0.00010657581      63.290126    0.022423379  -0.0010975218 
 1505000     8574  5.1955223e-05      79.046711     0.02241889   0.0010982516 
 1506000     8574   3.101892e-05      94.762321    0.022421377  -0.0010989813 
 1507000     8574  1.3843893e-05      110.48902    0.022418929    0.001099711 
 1508000     8574  8.5498626e-06      126.23026    0.022421075  -0.0011004408 
 1509000     8574  4.7819022e-06      141.94699    0.022418983   0.0011011705 
 1510000     8574  3.0630328e-06      157.81656     0.02242087  -0.0011019002 
 1511000     8574  1.7744642e-06       173.6752    0.022419222   0.0011026299 
 1512000     8574   1.034852e-06      189.76086    0.022420465  -0.0011033597 
 1513000     8574  6.3143367e-07      206.60978    0.022419602   0.0011040894 
 1514000     8574  3.3924328e-07      222.34598    0.022420084  -0.0011048191 
 1515000     8574  1.7631327e-07       238.0529    0.022419894   0.0011055489 
 1516000     8574  1.0105931e-07      253.76055    0.022419905  -0.0011062786 
 1517000     8574  7.3936764e-08      269.46708    0.022420004   0.0011070083 
 1518000     8574  7.4723491e-08      285.23088    0.022419866  -0.0011077381 
 1519000     8574  6.1329881e-08      301.20249    0.022419998   0.0011084678 
 1520000     8574  4.1937864e-08      317.34142    0.022419888  -0.0011091975 
 1521000     8574  3.6038143e-08      333.30479     0.02241999   0.0011099273 
 1522000     8574  2.5253473e-08      348.92012    0.022419909   -0.001110657 
 1523000     8574  1.5115665e-08      364.53087    0.022419981   0.0011113867 
 1524000     8574  1.8678339e-08         380.15    0.022419916  -0.0011121165 
 1525000     8574  1.4553799e-08       395.7933    0.022419966   0.0011128462 
 1526000     8574  1.0608664e-08      411.43125    0.022419924  -0.0011135759 
 1527000     8574   1.482416e-08      427.04127    0.022419955   0.0011143056 
 1528000     8574  9.5294799e-09      442.75842    0.022419931  -0.0011150354 
 1529000     8574   6.657984e-09      458.40676    0.022419946   0.0011157651 
 1530000     8574  1.0906731e-08      474.03175    0.022419932  -0.0011164948 
 1531000     8574  6.6325384e-09      489.66322    0.022419939   0.0011172246 
 1532000     8574  5.9609882e-09      505.32269    0.022419935  -0.0011179543 
 1533000     8574  1.0338086e-08      520.99423    0.022419939    0.001118684 
 1534000     8574   4.725866e-09      536.61528     0.02241994  -0.0011194138 
 1535000     8574   5.383663e-09      552.24864    0.022419941   0.0011201435 
 1536000     8574  8.8273794e-09        567.953    0.022419942  -0.0011208732 
 1537000     8574  3.0309052e-09      583.62473    0.022419941    0.001121603 
 1538000     8574  4.9752219e-09      599.28896    0.022419942  -0.0011223327 
 1539000     8574   7.690292e-09      614.94295    0.022419938   0.0011230624 
 1540000     8574  2.5998258e-09      630.60084    0.022419939  -0.0011237921 
 1541000     8574  5.7595165e-09      646.28133    0.022419936   0.0011245219 
 1542000     8574  7.3302532e-09      661.96155    0.022419937  -0.0011252516 
 1543000     8574  2.0724276e-09      677.63407    0.022419938   0.0011259813 
 1544000     8574  5.9766234e-09      693.39302    0.022419939  -0.0011267111 
 1545000     8574  6.2611573e-09      709.10949     0.02241994   0.0011274408 
 1546000     8574  1.6405197e-09      724.78035    0.022419941  -0.0011281705 
 1547000     8574  6.4969027e-09      740.46347     0.02241994   0.0011289003 
 1548000     8574  5.5684717e-09      756.15256    0.022419939    -0.00112963 
 1549000     8574  1.5545506e-09      771.80996    0.022419939   0.0011303597 
 1550000     8574  6.7548627e-09      787.64709    0.022419939  -0.0011310895 
 1551000     8574  4.4899543e-09      803.39501    0.022419939   0.0011318192 
 1552000     8574   1.928388e-09      819.18652    0.022419939  -0.0011325489 
 1553000     8574  7.3705339e-09      834.92828    0.022419937   0.0011332787 
 1554000     8574  3.9916761e-09      850.68065    0.022419938  -0.0011340084 
 1555000     8574  2.4773045e-09      866.44423    0.022419938   0.0011347381 
 1556000     8574  7.4900974e-09      882.26746    0.022419938  -0.0011354678 
 1557000     8574  3.0728677e-09      898.25283    0.022419939   0.0011361976 
 1558000     8574  2.8668182e-09      913.94496    0.022419939  -0.0011369273 
 1559000     8574  7.1392476e-09      929.69391     0.02241994    0.001137657 
 1560000     8574  2.1639385e-09      945.38795    0.022419941  -0.0011383868 
 1561000     8574  3.1779894e-09      961.05362    0.022419941   0.0011391165 
 1562000     8574  6.8294503e-09      976.71942     0.02241994  -0.0011398462 
 1563000     8574  1.7924204e-09      992.40576    0.022419939    0.001140576 
 1564000     8574   4.451632e-09      1008.0842    0.022419937  -0.0011413057 
 1565000     8574  7.1508297e-09      1023.7454    0.022419935   0.0011420354 
 1566000     8574  1.7903505e-09      1039.4392    0.022419936  -0.0011427652 
 1567000     8574  4.9247666e-09      1055.1045    0.022419938   0.0011434949 
 1568000     8574  6.1482628e-09      1070.8721    0.022419939  -0.0011442246 
 1569000     8574  8.9084221e-10      1086.9444     0.02241994   0.0011449543 
 1570000     8574  5.2997933e-09      1102.7748     0.02241994  -0.0011456841 
 1571000     8574  5.3656091e-09      1118.7058     0.02241994   0.0011464138 
 1572000     8574  1.0160814e-09      1134.4108     0.02241994  -0.0011471435 
 1573000     8574  6.1171029e-09      1150.0899    0.022419938   0.0011478733 
 1574000     8574  4.9357649e-09      1165.7536    0.022419938   -0.001148603 
 1575000     8574  1.3987355e-09      1181.5479    0.022419938   0.0011493327 
 1576000     8574  6.8353537e-09      1197.4511    0.022419937  -0.0011500625 
 1577000     8574  4.2106938e-09      1213.7913    0.022419937   0.0011507922 
 1578000     8574  1.6963954e-09      1229.6139    0.022419938  -0.0011515219 
 1579000     8574  6.8545294e-09      1245.5155    0.022419938   0.0011522517 
 1580000     8574  3.1376717e-09      1261.3078    0.022419939  -0.0011529814 
 1581000     8574  1.7765198e-09       1277.197    0.022419939   0.0011537111 
 1582000     8574  6.8896936e-09      1292.9956    0.022419938  -0.0011544408 
 1583000     8574  2.3709069e-09      1308.7732    0.022419939   0.0011551706 
 1584000     8574  2.3574725e-09      1324.6121     0.02241994  -0.0011559003 
 1585000     8574  6.6494255e-09      1340.2847    0.022419939     0.00115663 
 1586000     8574  1.8057442e-09      1355.9506    0.022419939  -0.0011573598 
 1587000     8574  3.1791058e-09      1371.6002    0.022419938   0.0011580895 
 1588000     8574  7.0266034e-09      1387.2604    0.022419936  -0.0011588192 
 1589000     8574  1.7296404e-09      1402.9327    0.022419936    0.001159549 
 1590000     8574  4.2228753e-09      1418.6439    0.022419936  -0.0011602787 
 1591000     8574  6.4863327e-09        1434.34    0.022419937   0.0011610084 
 1592000     8574  9.7561253e-10      1450.0823    0.022419939  -0.0011617382 
 1593000     8574  4.3073123e-09      1465.7761     0.02241994   0.0011624679 
 1594000     8574  5.6548057e-09      1481.4855     0.02241994  -0.0011631976 
 1595000     8574  5.5970718e-10      1497.1638    0.022419941   0.0011639273 
 1596000     8574  5.1848606e-09      1512.8795     0.02241994  -0.0011646571 
 1597000     8574  5.1404311e-09      1528.6825    0.022419938   0.0011653868 
 1598000     8574  1.0889422e-09      1544.4564    0.022419937  -0.0011661165 
 1599000     8574   6.199314e-09      1560.1445    0.022419936   0.0011668463 
 1600000     8574  4.8710495e-09       1575.896    0.022419936   -0.001167576 
Loop time of 1575.9 on 6 procs for 100000 steps with 8574 atoms, finish time Sat Oct 10 08:14:39 2020


Pair  time (%) = 678.986 (43.0857)
Neigh time (%) = 0.177083 (0.011237)
Comm  time (%) = 12.934 (0.820737)
Outpt time (%) = 2.11397 (0.134144)
Other time (%) = 881.685 (55.9482)

Nlocal:    1429 ave 2912 max 0 min
Histogram: 3 0 0 0 0 0 0 0 0 3
Nghost:    2882.5 ave 6424 max 0 min
Histogram: 3 0 0 0 0 0 0 0 2 1
Neighs:    368044 ave 744713 max 0 min
Histogram: 3 0 0 0 0 0 0 0 0 3

Total # of neighbors = 2208262
Ave neighs/atom = 257.553
Neighbor list builds = 10
Dangerous builds = 0

write_data	./Packdata/packdata.txt
